V -t * -v 1.0a5 -a 0
A -t * -n 1 -p 0 -o 0x7fffffff -c 30 -a 1
A -t * -h 1 -m 1073741823 -s 0
c -t * -i 1 -n Blue
c -t * -i 2 -n Red
n -t * -a 0 -s 0 -S UP -v circle -c black -i black
n -t * -a 1 -s 1 -S UP -v circle -c black -i black
n -t * -a 2 -s 2 -S UP -v circle -c black -i black
n -t * -a 3 -s 3 -S UP -v circle -c black -i black
l -t * -s 0 -d 2 -S UP -r 1000000 -D 0.01 -c black -o right-down
l -t * -s 1 -d 2 -S UP -r 2000000 -D 0.014999999999999999 -c black -o right-up
l -t * -s 2 -d 3 -S UP -r 1000000 -D 0.02 -c black -o right
+ -t 0.504091586621143 -s 1 -d 2 -p tcp -e 40 -c 2 -i 0 -a 2 -x {1.0 3.1 0 ------- null}
- -t 0.504091586621143 -s 1 -d 2 -p tcp -e 40 -c 2 -i 0 -a 2 -x {1.0 3.1 0 ------- null}
h -t 0.504091586621143 -s 1 -d 2 -p tcp -e 40 -c 2 -i 0 -a 2 -x {1.0 3.1 -1 ------- null}
r -t 0.519251586621142 -s 1 -d 2 -p tcp -e 40 -c 2 -i 0 -a 2 -x {1.0 3.1 0 ------- null}
+ -t 0.519251586621142 -s 2 -d 3 -p tcp -e 40 -c 2 -i 0 -a 2 -x {1.0 3.1 0 ------- null}
- -t 0.519251586621142 -s 2 -d 3 -p tcp -e 40 -c 2 -i 0 -a 2 -x {1.0 3.1 0 ------- null}
h -t 0.519251586621142 -s 2 -d 3 -p tcp -e 40 -c 2 -i 0 -a 2 -x {1.0 3.1 -1 ------- null}
r -t 0.539571586621142 -s 2 -d 3 -p tcp -e 40 -c 2 -i 0 -a 2 -x {1.0 3.1 0 ------- null}
+ -t 0.539571586621142 -s 3 -d 2 -p ack -e 40 -c 2 -i 1 -a 2 -x {3.1 1.0 0 ------- null}
- -t 0.539571586621142 -s 3 -d 2 -p ack -e 40 -c 2 -i 1 -a 2 -x {3.1 1.0 0 ------- null}
h -t 0.539571586621142 -s 3 -d 2 -p ack -e 40 -c 2 -i 1 -a 2 -x {3.1 1.0 -1 ------- null}
r -t 0.559891586621142 -s 3 -d 2 -p ack -e 40 -c 2 -i 1 -a 2 -x {3.1 1.0 0 ------- null}
+ -t 0.559891586621142 -s 2 -d 1 -p ack -e 40 -c 2 -i 1 -a 2 -x {3.1 1.0 0 ------- null}
- -t 0.559891586621142 -s 2 -d 1 -p ack -e 40 -c 2 -i 1 -a 2 -x {3.1 1.0 0 ------- null}
h -t 0.559891586621142 -s 2 -d 1 -p ack -e 40 -c 2 -i 1 -a 2 -x {3.1 1.0 -1 ------- null}
r -t 0.575051586621142 -s 2 -d 1 -p ack -e 40 -c 2 -i 1 -a 2 -x {3.1 1.0 0 ------- null}
+ -t 0.575051586621142 -s 1 -d 2 -p tcp -e 1040 -c 2 -i 2 -a 2 -x {1.0 3.1 1 ------- null}
- -t 0.575051586621142 -s 1 -d 2 -p tcp -e 1040 -c 2 -i 2 -a 2 -x {1.0 3.1 1 ------- null}
h -t 0.575051586621142 -s 1 -d 2 -p tcp -e 1040 -c 2 -i 2 -a 2 -x {1.0 3.1 -1 ------- null}
+ -t 0.575051586621142 -s 1 -d 2 -p tcp -e 1040 -c 2 -i 3 -a 2 -x {1.0 3.1 2 ------- null}
- -t 0.579211586621142 -s 1 -d 2 -p tcp -e 1040 -c 2 -i 3 -a 2 -x {1.0 3.1 2 ------- null}
h -t 0.579211586621142 -s 1 -d 2 -p tcp -e 1040 -c 2 -i 3 -a 2 -x {1.0 3.1 -1 ------- null}
r -t 0.594211586621142 -s 1 -d 2 -p tcp -e 1040 -c 2 -i 2 -a 2 -x {1.0 3.1 1 ------- null}
+ -t 0.594211586621142 -s 2 -d 3 -p tcp -e 1040 -c 2 -i 2 -a 2 -x {1.0 3.1 1 ------- null}
- -t 0.594211586621142 -s 2 -d 3 -p tcp -e 1040 -c 2 -i 2 -a 2 -x {1.0 3.1 1 ------- null}
h -t 0.594211586621142 -s 2 -d 3 -p tcp -e 1040 -c 2 -i 2 -a 2 -x {1.0 3.1 -1 ------- null}
r -t 0.598371586621142 -s 1 -d 2 -p tcp -e 1040 -c 2 -i 3 -a 2 -x {1.0 3.1 2 ------- null}
+ -t 0.598371586621142 -s 2 -d 3 -p tcp -e 1040 -c 2 -i 3 -a 2 -x {1.0 3.1 2 ------- null}
- -t 0.602531586621142 -s 2 -d 3 -p tcp -e 1040 -c 2 -i 3 -a 2 -x {1.0 3.1 2 ------- null}
h -t 0.602531586621142 -s 2 -d 3 -p tcp -e 1040 -c 2 -i 3 -a 2 -x {1.0 3.1 -1 ------- null}
r -t 0.622531586621142 -s 2 -d 3 -p tcp -e 1040 -c 2 -i 2 -a 2 -x {1.0 3.1 1 ------- null}
+ -t 0.622531586621142 -s 3 -d 2 -p ack -e 40 -c 2 -i 4 -a 2 -x {3.1 1.0 1 ------- null}
- -t 0.622531586621142 -s 3 -d 2 -p ack -e 40 -c 2 -i 4 -a 2 -x {3.1 1.0 1 ------- null}
h -t 0.622531586621142 -s 3 -d 2 -p ack -e 40 -c 2 -i 4 -a 2 -x {3.1 1.0 -1 ------- null}
r -t 0.630851586621142 -s 2 -d 3 -p tcp -e 1040 -c 2 -i 3 -a 2 -x {1.0 3.1 2 ------- null}
+ -t 0.630851586621142 -s 3 -d 2 -p ack -e 40 -c 2 -i 5 -a 2 -x {3.1 1.0 2 ------- null}
- -t 0.630851586621142 -s 3 -d 2 -p ack -e 40 -c 2 -i 5 -a 2 -x {3.1 1.0 2 ------- null}
h -t 0.630851586621142 -s 3 -d 2 -p ack -e 40 -c 2 -i 5 -a 2 -x {3.1 1.0 -1 ------- null}
r -t 0.642851586621142 -s 3 -d 2 -p ack -e 40 -c 2 -i 4 -a 2 -x {3.1 1.0 1 ------- null}
+ -t 0.642851586621142 -s 2 -d 1 -p ack -e 40 -c 2 -i 4 -a 2 -x {3.1 1.0 1 ------- null}
- -t 0.642851586621142 -s 2 -d 1 -p ack -e 40 -c 2 -i 4 -a 2 -x {3.1 1.0 1 ------- null}
h -t 0.642851586621142 -s 2 -d 1 -p ack -e 40 -c 2 -i 4 -a 2 -x {3.1 1.0 -1 ------- null}
r -t 0.651171586621142 -s 3 -d 2 -p ack -e 40 -c 2 -i 5 -a 2 -x {3.1 1.0 2 ------- null}
+ -t 0.651171586621142 -s 2 -d 1 -p ack -e 40 -c 2 -i 5 -a 2 -x {3.1 1.0 2 ------- null}
- -t 0.651171586621142 -s 2 -d 1 -p ack -e 40 -c 2 -i 5 -a 2 -x {3.1 1.0 2 ------- null}
h -t 0.651171586621142 -s 2 -d 1 -p ack -e 40 -c 2 -i 5 -a 2 -x {3.1 1.0 -1 ------- null}
r -t 0.658011586621142 -s 2 -d 1 -p ack -e 40 -c 2 -i 4 -a 2 -x {3.1 1.0 1 ------- null}
+ -t 0.658011586621142 -s 1 -d 2 -p tcp -e 1040 -c 2 -i 6 -a 2 -x {1.0 3.1 3 ------- null}
- -t 0.658011586621142 -s 1 -d 2 -p tcp -e 1040 -c 2 -i 6 -a 2 -x {1.0 3.1 3 ------- null}
h -t 0.658011586621142 -s 1 -d 2 -p tcp -e 1040 -c 2 -i 6 -a 2 -x {1.0 3.1 -1 ------- null}
+ -t 0.658011586621142 -s 1 -d 2 -p tcp -e 1040 -c 2 -i 7 -a 2 -x {1.0 3.1 4 ------- null}
- -t 0.662171586621142 -s 1 -d 2 -p tcp -e 1040 -c 2 -i 7 -a 2 -x {1.0 3.1 4 ------- null}
h -t 0.662171586621142 -s 1 -d 2 -p tcp -e 1040 -c 2 -i 7 -a 2 -x {1.0 3.1 -1 ------- null}
r -t 0.666331586621142 -s 2 -d 1 -p ack -e 40 -c 2 -i 5 -a 2 -x {3.1 1.0 2 ------- null}
+ -t 0.666331586621142 -s 1 -d 2 -p tcp -e 1040 -c 2 -i 8 -a 2 -x {1.0 3.1 5 ------- null}
+ -t 0.666331586621142 -s 1 -d 2 -p tcp -e 1040 -c 2 -i 9 -a 2 -x {1.0 3.1 6 ------- null}
- -t 0.666331586621142 -s 1 -d 2 -p tcp -e 1040 -c 2 -i 8 -a 2 -x {1.0 3.1 5 ------- null}
h -t 0.666331586621142 -s 1 -d 2 -p tcp -e 1040 -c 2 -i 8 -a 2 -x {1.0 3.1 -1 ------- null}
- -t 0.670491586621142 -s 1 -d 2 -p tcp -e 1040 -c 2 -i 9 -a 2 -x {1.0 3.1 6 ------- null}
h -t 0.670491586621142 -s 1 -d 2 -p tcp -e 1040 -c 2 -i 9 -a 2 -x {1.0 3.1 -1 ------- null}
r -t 0.677171586621142 -s 1 -d 2 -p tcp -e 1040 -c 2 -i 6 -a 2 -x {1.0 3.1 3 ------- null}
+ -t 0.677171586621142 -s 2 -d 3 -p tcp -e 1040 -c 2 -i 6 -a 2 -x {1.0 3.1 3 ------- null}
- -t 0.677171586621142 -s 2 -d 3 -p tcp -e 1040 -c 2 -i 6 -a 2 -x {1.0 3.1 3 ------- null}
h -t 0.677171586621142 -s 2 -d 3 -p tcp -e 1040 -c 2 -i 6 -a 2 -x {1.0 3.1 -1 ------- null}
r -t 0.681331586621142 -s 1 -d 2 -p tcp -e 1040 -c 2 -i 7 -a 2 -x {1.0 3.1 4 ------- null}
+ -t 0.681331586621142 -s 2 -d 3 -p tcp -e 1040 -c 2 -i 7 -a 2 -x {1.0 3.1 4 ------- null}
- -t 0.685491586621142 -s 2 -d 3 -p tcp -e 1040 -c 2 -i 7 -a 2 -x {1.0 3.1 4 ------- null}
h -t 0.685491586621142 -s 2 -d 3 -p tcp -e 1040 -c 2 -i 7 -a 2 -x {1.0 3.1 -1 ------- null}
r -t 0.685491586621142 -s 1 -d 2 -p tcp -e 1040 -c 2 -i 8 -a 2 -x {1.0 3.1 5 ------- null}
+ -t 0.685491586621142 -s 2 -d 3 -p tcp -e 1040 -c 2 -i 8 -a 2 -x {1.0 3.1 5 ------- null}
r -t 0.689651586621142 -s 1 -d 2 -p tcp -e 1040 -c 2 -i 9 -a 2 -x {1.0 3.1 6 ------- null}
+ -t 0.689651586621142 -s 2 -d 3 -p tcp -e 1040 -c 2 -i 9 -a 2 -x {1.0 3.1 6 ------- null}
- -t 0.693811586621142 -s 2 -d 3 -p tcp -e 1040 -c 2 -i 8 -a 2 -x {1.0 3.1 5 ------- null}
h -t 0.693811586621142 -s 2 -d 3 -p tcp -e 1040 -c 2 -i 8 -a 2 -x {1.0 3.1 -1 ------- null}
- -t 0.702131586621142 -s 2 -d 3 -p tcp -e 1040 -c 2 -i 9 -a 2 -x {1.0 3.1 6 ------- null}
h -t 0.702131586621142 -s 2 -d 3 -p tcp -e 1040 -c 2 -i 9 -a 2 -x {1.0 3.1 -1 ------- null}
r -t 0.705491586621142 -s 2 -d 3 -p tcp -e 1040 -c 2 -i 6 -a 2 -x {1.0 3.1 3 ------- null}
+ -t 0.705491586621142 -s 3 -d 2 -p ack -e 40 -c 2 -i 10 -a 2 -x {3.1 1.0 3 ------- null}
- -t 0.705491586621142 -s 3 -d 2 -p ack -e 40 -c 2 -i 10 -a 2 -x {3.1 1.0 3 ------- null}
h -t 0.705491586621142 -s 3 -d 2 -p ack -e 40 -c 2 -i 10 -a 2 -x {3.1 1.0 -1 ------- null}
r -t 0.713811586621142 -s 2 -d 3 -p tcp -e 1040 -c 2 -i 7 -a 2 -x {1.0 3.1 4 ------- null}
+ -t 0.713811586621142 -s 3 -d 2 -p ack -e 40 -c 2 -i 11 -a 2 -x {3.1 1.0 4 ------- null}
- -t 0.713811586621142 -s 3 -d 2 -p ack -e 40 -c 2 -i 11 -a 2 -x {3.1 1.0 4 ------- null}
h -t 0.713811586621142 -s 3 -d 2 -p ack -e 40 -c 2 -i 11 -a 2 -x {3.1 1.0 -1 ------- null}
r -t 0.722131586621142 -s 2 -d 3 -p tcp -e 1040 -c 2 -i 8 -a 2 -x {1.0 3.1 5 ------- null}
+ -t 0.722131586621142 -s 3 -d 2 -p ack -e 40 -c 2 -i 12 -a 2 -x {3.1 1.0 5 ------- null}
- -t 0.722131586621142 -s 3 -d 2 -p ack -e 40 -c 2 -i 12 -a 2 -x {3.1 1.0 5 ------- null}
h -t 0.722131586621142 -s 3 -d 2 -p ack -e 40 -c 2 -i 12 -a 2 -x {3.1 1.0 -1 ------- null}
r -t 0.725811586621142 -s 3 -d 2 -p ack -e 40 -c 2 -i 10 -a 2 -x {3.1 1.0 3 ------- null}
+ -t 0.725811586621142 -s 2 -d 1 -p ack -e 40 -c 2 -i 10 -a 2 -x {3.1 1.0 3 ------- null}
- -t 0.725811586621142 -s 2 -d 1 -p ack -e 40 -c 2 -i 10 -a 2 -x {3.1 1.0 3 ------- null}
h -t 0.725811586621142 -s 2 -d 1 -p ack -e 40 -c 2 -i 10 -a 2 -x {3.1 1.0 -1 ------- null}
r -t 0.730451586621142 -s 2 -d 3 -p tcp -e 1040 -c 2 -i 9 -a 2 -x {1.0 3.1 6 ------- null}
+ -t 0.730451586621142 -s 3 -d 2 -p ack -e 40 -c 2 -i 13 -a 2 -x {3.1 1.0 6 ------- null}
- -t 0.730451586621142 -s 3 -d 2 -p ack -e 40 -c 2 -i 13 -a 2 -x {3.1 1.0 6 ------- null}
h -t 0.730451586621142 -s 3 -d 2 -p ack -e 40 -c 2 -i 13 -a 2 -x {3.1 1.0 -1 ------- null}
r -t 0.734131586621142 -s 3 -d 2 -p ack -e 40 -c 2 -i 11 -a 2 -x {3.1 1.0 4 ------- null}
+ -t 0.734131586621142 -s 2 -d 1 -p ack -e 40 -c 2 -i 11 -a 2 -x {3.1 1.0 4 ------- null}
- -t 0.734131586621142 -s 2 -d 1 -p ack -e 40 -c 2 -i 11 -a 2 -x {3.1 1.0 4 ------- null}
h -t 0.734131586621142 -s 2 -d 1 -p ack -e 40 -c 2 -i 11 -a 2 -x {3.1 1.0 -1 ------- null}
r -t 0.740971586621142 -s 2 -d 1 -p ack -e 40 -c 2 -i 10 -a 2 -x {3.1 1.0 3 ------- null}
+ -t 0.740971586621142 -s 1 -d 2 -p tcp -e 1040 -c 2 -i 14 -a 2 -x {1.0 3.1 7 ------- null}
- -t 0.740971586621142 -s 1 -d 2 -p tcp -e 1040 -c 2 -i 14 -a 2 -x {1.0 3.1 7 ------- null}
h -t 0.740971586621142 -s 1 -d 2 -p tcp -e 1040 -c 2 -i 14 -a 2 -x {1.0 3.1 -1 ------- null}
+ -t 0.740971586621142 -s 1 -d 2 -p tcp -e 1040 -c 2 -i 15 -a 2 -x {1.0 3.1 8 ------- null}
r -t 0.742451586621142 -s 3 -d 2 -p ack -e 40 -c 2 -i 12 -a 2 -x {3.1 1.0 5 ------- null}
+ -t 0.742451586621142 -s 2 -d 1 -p ack -e 40 -c 2 -i 12 -a 2 -x {3.1 1.0 5 ------- null}
- -t 0.742451586621142 -s 2 -d 1 -p ack -e 40 -c 2 -i 12 -a 2 -x {3.1 1.0 5 ------- null}
h -t 0.742451586621142 -s 2 -d 1 -p ack -e 40 -c 2 -i 12 -a 2 -x {3.1 1.0 -1 ------- null}
- -t 0.745131586621142 -s 1 -d 2 -p tcp -e 1040 -c 2 -i 15 -a 2 -x {1.0 3.1 8 ------- null}
h -t 0.745131586621142 -s 1 -d 2 -p tcp -e 1040 -c 2 -i 15 -a 2 -x {1.0 3.1 -1 ------- null}
r -t 0.749291586621142 -s 2 -d 1 -p ack -e 40 -c 2 -i 11 -a 2 -x {3.1 1.0 4 ------- null}
+ -t 0.749291586621142 -s 1 -d 2 -p tcp -e 1040 -c 2 -i 16 -a 2 -x {1.0 3.1 9 ------- null}
+ -t 0.749291586621142 -s 1 -d 2 -p tcp -e 1040 -c 2 -i 17 -a 2 -x {1.0 3.1 10 ------- null}
- -t 0.749291586621142 -s 1 -d 2 -p tcp -e 1040 -c 2 -i 16 -a 2 -x {1.0 3.1 9 ------- null}
h -t 0.749291586621142 -s 1 -d 2 -p tcp -e 1040 -c 2 -i 16 -a 2 -x {1.0 3.1 -1 ------- null}
r -t 0.750771586621142 -s 3 -d 2 -p ack -e 40 -c 2 -i 13 -a 2 -x {3.1 1.0 6 ------- null}
+ -t 0.750771586621142 -s 2 -d 1 -p ack -e 40 -c 2 -i 13 -a 2 -x {3.1 1.0 6 ------- null}
- -t 0.750771586621142 -s 2 -d 1 -p ack -e 40 -c 2 -i 13 -a 2 -x {3.1 1.0 6 ------- null}
h -t 0.750771586621142 -s 2 -d 1 -p ack -e 40 -c 2 -i 13 -a 2 -x {3.1 1.0 -1 ------- null}
- -t 0.753451586621142 -s 1 -d 2 -p tcp -e 1040 -c 2 -i 17 -a 2 -x {1.0 3.1 10 ------- null}
h -t 0.753451586621142 -s 1 -d 2 -p tcp -e 1040 -c 2 -i 17 -a 2 -x {1.0 3.1 -1 ------- null}
r -t 0.757611586621142 -s 2 -d 1 -p ack -e 40 -c 2 -i 12 -a 2 -x {3.1 1.0 5 ------- null}
+ -t 0.757611586621142 -s 1 -d 2 -p tcp -e 1040 -c 2 -i 18 -a 2 -x {1.0 3.1 11 ------- null}
+ -t 0.757611586621142 -s 1 -d 2 -p tcp -e 1040 -c 2 -i 19 -a 2 -x {1.0 3.1 12 ------- null}
- -t 0.757611586621142 -s 1 -d 2 -p tcp -e 1040 -c 2 -i 18 -a 2 -x {1.0 3.1 11 ------- null}
h -t 0.757611586621142 -s 1 -d 2 -p tcp -e 1040 -c 2 -i 18 -a 2 -x {1.0 3.1 -1 ------- null}
r -t 0.760131586621142 -s 1 -d 2 -p tcp -e 1040 -c 2 -i 14 -a 2 -x {1.0 3.1 7 ------- null}
+ -t 0.760131586621142 -s 2 -d 3 -p tcp -e 1040 -c 2 -i 14 -a 2 -x {1.0 3.1 7 ------- null}
- -t 0.760131586621142 -s 2 -d 3 -p tcp -e 1040 -c 2 -i 14 -a 2 -x {1.0 3.1 7 ------- null}
h -t 0.760131586621142 -s 2 -d 3 -p tcp -e 1040 -c 2 -i 14 -a 2 -x {1.0 3.1 -1 ------- null}
- -t 0.761771586621143 -s 1 -d 2 -p tcp -e 1040 -c 2 -i 19 -a 2 -x {1.0 3.1 12 ------- null}
h -t 0.761771586621143 -s 1 -d 2 -p tcp -e 1040 -c 2 -i 19 -a 2 -x {1.0 3.1 -1 ------- null}
r -t 0.764291586621142 -s 1 -d 2 -p tcp -e 1040 -c 2 -i 15 -a 2 -x {1.0 3.1 8 ------- null}
+ -t 0.764291586621142 -s 2 -d 3 -p tcp -e 1040 -c 2 -i 15 -a 2 -x {1.0 3.1 8 ------- null}
r -t 0.765931586621142 -s 2 -d 1 -p ack -e 40 -c 2 -i 13 -a 2 -x {3.1 1.0 6 ------- null}
+ -t 0.765931586621142 -s 1 -d 2 -p tcp -e 1040 -c 2 -i 20 -a 2 -x {1.0 3.1 13 ------- null}
+ -t 0.765931586621142 -s 1 -d 2 -p tcp -e 1040 -c 2 -i 21 -a 2 -x {1.0 3.1 14 ------- null}
- -t 0.765931586621143 -s 1 -d 2 -p tcp -e 1040 -c 2 -i 20 -a 2 -x {1.0 3.1 13 ------- null}
h -t 0.765931586621143 -s 1 -d 2 -p tcp -e 1040 -c 2 -i 20 -a 2 -x {1.0 3.1 -1 ------- null}
- -t 0.768451586621142 -s 2 -d 3 -p tcp -e 1040 -c 2 -i 15 -a 2 -x {1.0 3.1 8 ------- null}
h -t 0.768451586621142 -s 2 -d 3 -p tcp -e 1040 -c 2 -i 15 -a 2 -x {1.0 3.1 -1 ------- null}
r -t 0.768451586621142 -s 1 -d 2 -p tcp -e 1040 -c 2 -i 16 -a 2 -x {1.0 3.1 9 ------- null}
+ -t 0.768451586621142 -s 2 -d 3 -p tcp -e 1040 -c 2 -i 16 -a 2 -x {1.0 3.1 9 ------- null}
- -t 0.770091586621143 -s 1 -d 2 -p tcp -e 1040 -c 2 -i 21 -a 2 -x {1.0 3.1 14 ------- null}
h -t 0.770091586621143 -s 1 -d 2 -p tcp -e 1040 -c 2 -i 21 -a 2 -x {1.0 3.1 -1 ------- null}
r -t 0.772611586621142 -s 1 -d 2 -p tcp -e 1040 -c 2 -i 17 -a 2 -x {1.0 3.1 10 ------- null}
+ -t 0.772611586621142 -s 2 -d 3 -p tcp -e 1040 -c 2 -i 17 -a 2 -x {1.0 3.1 10 ------- null}
- -t 0.776771586621142 -s 2 -d 3 -p tcp -e 1040 -c 2 -i 16 -a 2 -x {1.0 3.1 9 ------- null}
h -t 0.776771586621142 -s 2 -d 3 -p tcp -e 1040 -c 2 -i 16 -a 2 -x {1.0 3.1 -1 ------- null}
r -t 0.776771586621142 -s 1 -d 2 -p tcp -e 1040 -c 2 -i 18 -a 2 -x {1.0 3.1 11 ------- null}
+ -t 0.776771586621142 -s 2 -d 3 -p tcp -e 1040 -c 2 -i 18 -a 2 -x {1.0 3.1 11 ------- null}
r -t 0.780931586621142 -s 1 -d 2 -p tcp -e 1040 -c 2 -i 19 -a 2 -x {1.0 3.1 12 ------- null}
+ -t 0.780931586621142 -s 2 -d 3 -p tcp -e 1040 -c 2 -i 19 -a 2 -x {1.0 3.1 12 ------- null}
- -t 0.785091586621142 -s 2 -d 3 -p tcp -e 1040 -c 2 -i 17 -a 2 -x {1.0 3.1 10 ------- null}
h -t 0.785091586621142 -s 2 -d 3 -p tcp -e 1040 -c 2 -i 17 -a 2 -x {1.0 3.1 -1 ------- null}
r -t 0.785091586621143 -s 1 -d 2 -p tcp -e 1040 -c 2 -i 20 -a 2 -x {1.0 3.1 13 ------- null}
+ -t 0.785091586621143 -s 2 -d 3 -p tcp -e 1040 -c 2 -i 20 -a 2 -x {1.0 3.1 13 ------- null}
r -t 0.788451586621142 -s 2 -d 3 -p tcp -e 1040 -c 2 -i 14 -a 2 -x {1.0 3.1 7 ------- null}
+ -t 0.788451586621142 -s 3 -d 2 -p ack -e 40 -c 2 -i 22 -a 2 -x {3.1 1.0 7 ------- null}
- -t 0.788451586621142 -s 3 -d 2 -p ack -e 40 -c 2 -i 22 -a 2 -x {3.1 1.0 7 ------- null}
h -t 0.788451586621142 -s 3 -d 2 -p ack -e 40 -c 2 -i 22 -a 2 -x {3.1 1.0 -1 ------- null}
r -t 0.789251586621143 -s 1 -d 2 -p tcp -e 1040 -c 2 -i 21 -a 2 -x {1.0 3.1 14 ------- null}
+ -t 0.789251586621143 -s 2 -d 3 -p tcp -e 1040 -c 2 -i 21 -a 2 -x {1.0 3.1 14 ------- null}
- -t 0.793411586621142 -s 2 -d 3 -p tcp -e 1040 -c 2 -i 18 -a 2 -x {1.0 3.1 11 ------- null}
h -t 0.793411586621142 -s 2 -d 3 -p tcp -e 1040 -c 2 -i 18 -a 2 -x {1.0 3.1 -1 ------- null}
r -t 0.796771586621142 -s 2 -d 3 -p tcp -e 1040 -c 2 -i 15 -a 2 -x {1.0 3.1 8 ------- null}
+ -t 0.796771586621142 -s 3 -d 2 -p ack -e 40 -c 2 -i 23 -a 2 -x {3.1 1.0 8 ------- null}
- -t 0.796771586621142 -s 3 -d 2 -p ack -e 40 -c 2 -i 23 -a 2 -x {3.1 1.0 8 ------- null}
h -t 0.796771586621142 -s 3 -d 2 -p ack -e 40 -c 2 -i 23 -a 2 -x {3.1 1.0 -1 ------- null}
- -t 0.801731586621142 -s 2 -d 3 -p tcp -e 1040 -c 2 -i 19 -a 2 -x {1.0 3.1 12 ------- null}
h -t 0.801731586621142 -s 2 -d 3 -p tcp -e 1040 -c 2 -i 19 -a 2 -x {1.0 3.1 -1 ------- null}
r -t 0.805091586621142 -s 2 -d 3 -p tcp -e 1040 -c 2 -i 16 -a 2 -x {1.0 3.1 9 ------- null}
+ -t 0.805091586621142 -s 3 -d 2 -p ack -e 40 -c 2 -i 24 -a 2 -x {3.1 1.0 9 ------- null}
- -t 0.805091586621142 -s 3 -d 2 -p ack -e 40 -c 2 -i 24 -a 2 -x {3.1 1.0 9 ------- null}
h -t 0.805091586621142 -s 3 -d 2 -p ack -e 40 -c 2 -i 24 -a 2 -x {3.1 1.0 -1 ------- null}
r -t 0.808771586621142 -s 3 -d 2 -p ack -e 40 -c 2 -i 22 -a 2 -x {3.1 1.0 7 ------- null}
+ -t 0.808771586621142 -s 2 -d 1 -p ack -e 40 -c 2 -i 22 -a 2 -x {3.1 1.0 7 ------- null}
- -t 0.808771586621142 -s 2 -d 1 -p ack -e 40 -c 2 -i 22 -a 2 -x {3.1 1.0 7 ------- null}
h -t 0.808771586621142 -s 2 -d 1 -p ack -e 40 -c 2 -i 22 -a 2 -x {3.1 1.0 -1 ------- null}
- -t 0.810051586621142 -s 2 -d 3 -p tcp -e 1040 -c 2 -i 20 -a 2 -x {1.0 3.1 13 ------- null}
h -t 0.810051586621142 -s 2 -d 3 -p tcp -e 1040 -c 2 -i 20 -a 2 -x {1.0 3.1 -1 ------- null}
r -t 0.813411586621142 -s 2 -d 3 -p tcp -e 1040 -c 2 -i 17 -a 2 -x {1.0 3.1 10 ------- null}
+ -t 0.813411586621142 -s 3 -d 2 -p ack -e 40 -c 2 -i 25 -a 2 -x {3.1 1.0 10 ------- null}
- -t 0.813411586621142 -s 3 -d 2 -p ack -e 40 -c 2 -i 25 -a 2 -x {3.1 1.0 10 ------- null}
h -t 0.813411586621142 -s 3 -d 2 -p ack -e 40 -c 2 -i 25 -a 2 -x {3.1 1.0 -1 ------- null}
r -t 0.817091586621142 -s 3 -d 2 -p ack -e 40 -c 2 -i 23 -a 2 -x {3.1 1.0 8 ------- null}
+ -t 0.817091586621142 -s 2 -d 1 -p ack -e 40 -c 2 -i 23 -a 2 -x {3.1 1.0 8 ------- null}
- -t 0.817091586621142 -s 2 -d 1 -p ack -e 40 -c 2 -i 23 -a 2 -x {3.1 1.0 8 ------- null}
h -t 0.817091586621142 -s 2 -d 1 -p ack -e 40 -c 2 -i 23 -a 2 -x {3.1 1.0 -1 ------- null}
- -t 0.818371586621142 -s 2 -d 3 -p tcp -e 1040 -c 2 -i 21 -a 2 -x {1.0 3.1 14 ------- null}
h -t 0.818371586621142 -s 2 -d 3 -p tcp -e 1040 -c 2 -i 21 -a 2 -x {1.0 3.1 -1 ------- null}
r -t 0.821731586621142 -s 2 -d 3 -p tcp -e 1040 -c 2 -i 18 -a 2 -x {1.0 3.1 11 ------- null}
+ -t 0.821731586621142 -s 3 -d 2 -p ack -e 40 -c 2 -i 26 -a 2 -x {3.1 1.0 11 ------- null}
- -t 0.821731586621142 -s 3 -d 2 -p ack -e 40 -c 2 -i 26 -a 2 -x {3.1 1.0 11 ------- null}
h -t 0.821731586621142 -s 3 -d 2 -p ack -e 40 -c 2 -i 26 -a 2 -x {3.1 1.0 -1 ------- null}
r -t 0.823931586621142 -s 2 -d 1 -p ack -e 40 -c 2 -i 22 -a 2 -x {3.1 1.0 7 ------- null}
+ -t 0.823931586621142 -s 1 -d 2 -p tcp -e 1040 -c 2 -i 27 -a 2 -x {1.0 3.1 15 ------- null}
- -t 0.823931586621142 -s 1 -d 2 -p tcp -e 1040 -c 2 -i 27 -a 2 -x {1.0 3.1 15 ------- null}
h -t 0.823931586621142 -s 1 -d 2 -p tcp -e 1040 -c 2 -i 27 -a 2 -x {1.0 3.1 -1 ------- null}
+ -t 0.823931586621142 -s 1 -d 2 -p tcp -e 1040 -c 2 -i 28 -a 2 -x {1.0 3.1 16 ------- null}
r -t 0.825411586621142 -s 3 -d 2 -p ack -e 40 -c 2 -i 24 -a 2 -x {3.1 1.0 9 ------- null}
+ -t 0.825411586621142 -s 2 -d 1 -p ack -e 40 -c 2 -i 24 -a 2 -x {3.1 1.0 9 ------- null}
- -t 0.825411586621142 -s 2 -d 1 -p ack -e 40 -c 2 -i 24 -a 2 -x {3.1 1.0 9 ------- null}
h -t 0.825411586621142 -s 2 -d 1 -p ack -e 40 -c 2 -i 24 -a 2 -x {3.1 1.0 -1 ------- null}
- -t 0.828091586621142 -s 1 -d 2 -p tcp -e 1040 -c 2 -i 28 -a 2 -x {1.0 3.1 16 ------- null}
h -t 0.828091586621142 -s 1 -d 2 -p tcp -e 1040 -c 2 -i 28 -a 2 -x {1.0 3.1 -1 ------- null}
r -t 0.830051586621142 -s 2 -d 3 -p tcp -e 1040 -c 2 -i 19 -a 2 -x {1.0 3.1 12 ------- null}
+ -t 0.830051586621142 -s 3 -d 2 -p ack -e 40 -c 2 -i 29 -a 2 -x {3.1 1.0 12 ------- null}
- -t 0.830051586621142 -s 3 -d 2 -p ack -e 40 -c 2 -i 29 -a 2 -x {3.1 1.0 12 ------- null}
h -t 0.830051586621142 -s 3 -d 2 -p ack -e 40 -c 2 -i 29 -a 2 -x {3.1 1.0 -1 ------- null}
r -t 0.832251586621142 -s 2 -d 1 -p ack -e 40 -c 2 -i 23 -a 2 -x {3.1 1.0 8 ------- null}
+ -t 0.832251586621142 -s 1 -d 2 -p tcp -e 1040 -c 2 -i 30 -a 2 -x {1.0 3.1 17 ------- null}
+ -t 0.832251586621142 -s 1 -d 2 -p tcp -e 1040 -c 2 -i 31 -a 2 -x {1.0 3.1 18 ------- null}
- -t 0.832251586621142 -s 1 -d 2 -p tcp -e 1040 -c 2 -i 30 -a 2 -x {1.0 3.1 17 ------- null}
h -t 0.832251586621142 -s 1 -d 2 -p tcp -e 1040 -c 2 -i 30 -a 2 -x {1.0 3.1 -1 ------- null}
r -t 0.833731586621142 -s 3 -d 2 -p ack -e 40 -c 2 -i 25 -a 2 -x {3.1 1.0 10 ------- null}
+ -t 0.833731586621142 -s 2 -d 1 -p ack -e 40 -c 2 -i 25 -a 2 -x {3.1 1.0 10 ------- null}
- -t 0.833731586621142 -s 2 -d 1 -p ack -e 40 -c 2 -i 25 -a 2 -x {3.1 1.0 10 ------- null}
h -t 0.833731586621142 -s 2 -d 1 -p ack -e 40 -c 2 -i 25 -a 2 -x {3.1 1.0 -1 ------- null}
- -t 0.836411586621142 -s 1 -d 2 -p tcp -e 1040 -c 2 -i 31 -a 2 -x {1.0 3.1 18 ------- null}
h -t 0.836411586621142 -s 1 -d 2 -p tcp -e 1040 -c 2 -i 31 -a 2 -x {1.0 3.1 -1 ------- null}
r -t 0.838371586621142 -s 2 -d 3 -p tcp -e 1040 -c 2 -i 20 -a 2 -x {1.0 3.1 13 ------- null}
+ -t 0.838371586621142 -s 3 -d 2 -p ack -e 40 -c 2 -i 32 -a 2 -x {3.1 1.0 13 ------- null}
- -t 0.838371586621142 -s 3 -d 2 -p ack -e 40 -c 2 -i 32 -a 2 -x {3.1 1.0 13 ------- null}
h -t 0.838371586621142 -s 3 -d 2 -p ack -e 40 -c 2 -i 32 -a 2 -x {3.1 1.0 -1 ------- null}
r -t 0.840571586621142 -s 2 -d 1 -p ack -e 40 -c 2 -i 24 -a 2 -x {3.1 1.0 9 ------- null}
+ -t 0.840571586621142 -s 1 -d 2 -p tcp -e 1040 -c 2 -i 33 -a 2 -x {1.0 3.1 19 ------- null}
+ -t 0.840571586621142 -s 1 -d 2 -p tcp -e 1040 -c 2 -i 34 -a 2 -x {1.0 3.1 20 ------- null}
- -t 0.840571586621142 -s 1 -d 2 -p tcp -e 1040 -c 2 -i 33 -a 2 -x {1.0 3.1 19 ------- null}
h -t 0.840571586621142 -s 1 -d 2 -p tcp -e 1040 -c 2 -i 33 -a 2 -x {1.0 3.1 -1 ------- null}
r -t 0.842051586621142 -s 3 -d 2 -p ack -e 40 -c 2 -i 26 -a 2 -x {3.1 1.0 11 ------- null}
+ -t 0.842051586621142 -s 2 -d 1 -p ack -e 40 -c 2 -i 26 -a 2 -x {3.1 1.0 11 ------- null}
- -t 0.842051586621142 -s 2 -d 1 -p ack -e 40 -c 2 -i 26 -a 2 -x {3.1 1.0 11 ------- null}
h -t 0.842051586621142 -s 2 -d 1 -p ack -e 40 -c 2 -i 26 -a 2 -x {3.1 1.0 -1 ------- null}
r -t 0.843091586621142 -s 1 -d 2 -p tcp -e 1040 -c 2 -i 27 -a 2 -x {1.0 3.1 15 ------- null}
+ -t 0.843091586621142 -s 2 -d 3 -p tcp -e 1040 -c 2 -i 27 -a 2 -x {1.0 3.1 15 ------- null}
- -t 0.843091586621142 -s 2 -d 3 -p tcp -e 1040 -c 2 -i 27 -a 2 -x {1.0 3.1 15 ------- null}
h -t 0.843091586621142 -s 2 -d 3 -p tcp -e 1040 -c 2 -i 27 -a 2 -x {1.0 3.1 -1 ------- null}
- -t 0.844731586621142 -s 1 -d 2 -p tcp -e 1040 -c 2 -i 34 -a 2 -x {1.0 3.1 20 ------- null}
h -t 0.844731586621142 -s 1 -d 2 -p tcp -e 1040 -c 2 -i 34 -a 2 -x {1.0 3.1 -1 ------- null}
r -t 0.846691586621142 -s 2 -d 3 -p tcp -e 1040 -c 2 -i 21 -a 2 -x {1.0 3.1 14 ------- null}
+ -t 0.846691586621142 -s 3 -d 2 -p ack -e 40 -c 2 -i 35 -a 2 -x {3.1 1.0 14 ------- null}
- -t 0.846691586621142 -s 3 -d 2 -p ack -e 40 -c 2 -i 35 -a 2 -x {3.1 1.0 14 ------- null}
h -t 0.846691586621142 -s 3 -d 2 -p ack -e 40 -c 2 -i 35 -a 2 -x {3.1 1.0 -1 ------- null}
r -t 0.847251586621142 -s 1 -d 2 -p tcp -e 1040 -c 2 -i 28 -a 2 -x {1.0 3.1 16 ------- null}
+ -t 0.847251586621142 -s 2 -d 3 -p tcp -e 1040 -c 2 -i 28 -a 2 -x {1.0 3.1 16 ------- null}
r -t 0.848891586621142 -s 2 -d 1 -p ack -e 40 -c 2 -i 25 -a 2 -x {3.1 1.0 10 ------- null}
+ -t 0.848891586621142 -s 1 -d 2 -p tcp -e 1040 -c 2 -i 36 -a 2 -x {1.0 3.1 21 ------- null}
+ -t 0.848891586621142 -s 1 -d 2 -p tcp -e 1040 -c 2 -i 37 -a 2 -x {1.0 3.1 22 ------- null}
- -t 0.848891586621143 -s 1 -d 2 -p tcp -e 1040 -c 2 -i 36 -a 2 -x {1.0 3.1 21 ------- null}
h -t 0.848891586621143 -s 1 -d 2 -p tcp -e 1040 -c 2 -i 36 -a 2 -x {1.0 3.1 -1 ------- null}
r -t 0.850371586621142 -s 3 -d 2 -p ack -e 40 -c 2 -i 29 -a 2 -x {3.1 1.0 12 ------- null}
+ -t 0.850371586621142 -s 2 -d 1 -p ack -e 40 -c 2 -i 29 -a 2 -x {3.1 1.0 12 ------- null}
- -t 0.850371586621142 -s 2 -d 1 -p ack -e 40 -c 2 -i 29 -a 2 -x {3.1 1.0 12 ------- null}
h -t 0.850371586621142 -s 2 -d 1 -p ack -e 40 -c 2 -i 29 -a 2 -x {3.1 1.0 -1 ------- null}
- -t 0.851411586621142 -s 2 -d 3 -p tcp -e 1040 -c 2 -i 28 -a 2 -x {1.0 3.1 16 ------- null}
h -t 0.851411586621142 -s 2 -d 3 -p tcp -e 1040 -c 2 -i 28 -a 2 -x {1.0 3.1 -1 ------- null}
r -t 0.851411586621142 -s 1 -d 2 -p tcp -e 1040 -c 2 -i 30 -a 2 -x {1.0 3.1 17 ------- null}
+ -t 0.851411586621142 -s 2 -d 3 -p tcp -e 1040 -c 2 -i 30 -a 2 -x {1.0 3.1 17 ------- null}
- -t 0.853051586621143 -s 1 -d 2 -p tcp -e 1040 -c 2 -i 37 -a 2 -x {1.0 3.1 22 ------- null}
h -t 0.853051586621143 -s 1 -d 2 -p tcp -e 1040 -c 2 -i 37 -a 2 -x {1.0 3.1 -1 ------- null}
r -t 0.855571586621142 -s 1 -d 2 -p tcp -e 1040 -c 2 -i 31 -a 2 -x {1.0 3.1 18 ------- null}
+ -t 0.855571586621142 -s 2 -d 3 -p tcp -e 1040 -c 2 -i 31 -a 2 -x {1.0 3.1 18 ------- null}
r -t 0.857211586621142 -s 2 -d 1 -p ack -e 40 -c 2 -i 26 -a 2 -x {3.1 1.0 11 ------- null}
+ -t 0.857211586621142 -s 1 -d 2 -p tcp -e 1040 -c 2 -i 38 -a 2 -x {1.0 3.1 23 ------- null}
+ -t 0.857211586621142 -s 1 -d 2 -p tcp -e 1040 -c 2 -i 39 -a 2 -x {1.0 3.1 24 ------- null}
- -t 0.857211586621143 -s 1 -d 2 -p tcp -e 1040 -c 2 -i 38 -a 2 -x {1.0 3.1 23 ------- null}
h -t 0.857211586621143 -s 1 -d 2 -p tcp -e 1040 -c 2 -i 38 -a 2 -x {1.0 3.1 -1 ------- null}
r -t 0.858691586621142 -s 3 -d 2 -p ack -e 40 -c 2 -i 32 -a 2 -x {3.1 1.0 13 ------- null}
+ -t 0.858691586621142 -s 2 -d 1 -p ack -e 40 -c 2 -i 32 -a 2 -x {3.1 1.0 13 ------- null}
- -t 0.858691586621142 -s 2 -d 1 -p ack -e 40 -c 2 -i 32 -a 2 -x {3.1 1.0 13 ------- null}
h -t 0.858691586621142 -s 2 -d 1 -p ack -e 40 -c 2 -i 32 -a 2 -x {3.1 1.0 -1 ------- null}
- -t 0.859731586621142 -s 2 -d 3 -p tcp -e 1040 -c 2 -i 30 -a 2 -x {1.0 3.1 17 ------- null}
h -t 0.859731586621142 -s 2 -d 3 -p tcp -e 1040 -c 2 -i 30 -a 2 -x {1.0 3.1 -1 ------- null}
r -t 0.859731586621142 -s 1 -d 2 -p tcp -e 1040 -c 2 -i 33 -a 2 -x {1.0 3.1 19 ------- null}
+ -t 0.859731586621142 -s 2 -d 3 -p tcp -e 1040 -c 2 -i 33 -a 2 -x {1.0 3.1 19 ------- null}
- -t 0.861371586621143 -s 1 -d 2 -p tcp -e 1040 -c 2 -i 39 -a 2 -x {1.0 3.1 24 ------- null}
h -t 0.861371586621143 -s 1 -d 2 -p tcp -e 1040 -c 2 -i 39 -a 2 -x {1.0 3.1 -1 ------- null}
r -t 0.863891586621142 -s 1 -d 2 -p tcp -e 1040 -c 2 -i 34 -a 2 -x {1.0 3.1 20 ------- null}
+ -t 0.863891586621142 -s 2 -d 3 -p tcp -e 1040 -c 2 -i 34 -a 2 -x {1.0 3.1 20 ------- null}
r -t 0.865531586621142 -s 2 -d 1 -p ack -e 40 -c 2 -i 29 -a 2 -x {3.1 1.0 12 ------- null}
+ -t 0.865531586621142 -s 1 -d 2 -p tcp -e 1040 -c 2 -i 40 -a 2 -x {1.0 3.1 25 ------- null}
+ -t 0.865531586621142 -s 1 -d 2 -p tcp -e 1040 -c 2 -i 41 -a 2 -x {1.0 3.1 26 ------- null}
- -t 0.865531586621143 -s 1 -d 2 -p tcp -e 1040 -c 2 -i 40 -a 2 -x {1.0 3.1 25 ------- null}
h -t 0.865531586621143 -s 1 -d 2 -p tcp -e 1040 -c 2 -i 40 -a 2 -x {1.0 3.1 -1 ------- null}
r -t 0.867011586621142 -s 3 -d 2 -p ack -e 40 -c 2 -i 35 -a 2 -x {3.1 1.0 14 ------- null}
+ -t 0.867011586621142 -s 2 -d 1 -p ack -e 40 -c 2 -i 35 -a 2 -x {3.1 1.0 14 ------- null}
- -t 0.867011586621142 -s 2 -d 1 -p ack -e 40 -c 2 -i 35 -a 2 -x {3.1 1.0 14 ------- null}
h -t 0.867011586621142 -s 2 -d 1 -p ack -e 40 -c 2 -i 35 -a 2 -x {3.1 1.0 -1 ------- null}
- -t 0.868051586621142 -s 2 -d 3 -p tcp -e 1040 -c 2 -i 31 -a 2 -x {1.0 3.1 18 ------- null}
h -t 0.868051586621142 -s 2 -d 3 -p tcp -e 1040 -c 2 -i 31 -a 2 -x {1.0 3.1 -1 ------- null}
r -t 0.868051586621142 -s 1 -d 2 -p tcp -e 1040 -c 2 -i 36 -a 2 -x {1.0 3.1 21 ------- null}
+ -t 0.868051586621142 -s 2 -d 3 -p tcp -e 1040 -c 2 -i 36 -a 2 -x {1.0 3.1 21 ------- null}
- -t 0.869691586621143 -s 1 -d 2 -p tcp -e 1040 -c 2 -i 41 -a 2 -x {1.0 3.1 26 ------- null}
h -t 0.869691586621143 -s 1 -d 2 -p tcp -e 1040 -c 2 -i 41 -a 2 -x {1.0 3.1 -1 ------- null}
r -t 0.871411586621142 -s 2 -d 3 -p tcp -e 1040 -c 2 -i 27 -a 2 -x {1.0 3.1 15 ------- null}
+ -t 0.871411586621142 -s 3 -d 2 -p ack -e 40 -c 2 -i 42 -a 2 -x {3.1 1.0 15 ------- null}
- -t 0.871411586621142 -s 3 -d 2 -p ack -e 40 -c 2 -i 42 -a 2 -x {3.1 1.0 15 ------- null}
h -t 0.871411586621142 -s 3 -d 2 -p ack -e 40 -c 2 -i 42 -a 2 -x {3.1 1.0 -1 ------- null}
r -t 0.872211586621143 -s 1 -d 2 -p tcp -e 1040 -c 2 -i 37 -a 2 -x {1.0 3.1 22 ------- null}
+ -t 0.872211586621143 -s 2 -d 3 -p tcp -e 1040 -c 2 -i 37 -a 2 -x {1.0 3.1 22 ------- null}
r -t 0.873851586621142 -s 2 -d 1 -p ack -e 40 -c 2 -i 32 -a 2 -x {3.1 1.0 13 ------- null}
+ -t 0.873851586621142 -s 1 -d 2 -p tcp -e 1040 -c 2 -i 43 -a 2 -x {1.0 3.1 27 ------- null}
+ -t 0.873851586621142 -s 1 -d 2 -p tcp -e 1040 -c 2 -i 44 -a 2 -x {1.0 3.1 28 ------- null}
- -t 0.873851586621143 -s 1 -d 2 -p tcp -e 1040 -c 2 -i 43 -a 2 -x {1.0 3.1 27 ------- null}
h -t 0.873851586621143 -s 1 -d 2 -p tcp -e 1040 -c 2 -i 43 -a 2 -x {1.0 3.1 -1 ------- null}
- -t 0.876371586621142 -s 2 -d 3 -p tcp -e 1040 -c 2 -i 33 -a 2 -x {1.0 3.1 19 ------- null}
h -t 0.876371586621142 -s 2 -d 3 -p tcp -e 1040 -c 2 -i 33 -a 2 -x {1.0 3.1 -1 ------- null}
r -t 0.876371586621143 -s 1 -d 2 -p tcp -e 1040 -c 2 -i 38 -a 2 -x {1.0 3.1 23 ------- null}
+ -t 0.876371586621143 -s 2 -d 3 -p tcp -e 1040 -c 2 -i 38 -a 2 -x {1.0 3.1 23 ------- null}
- -t 0.878011586621143 -s 1 -d 2 -p tcp -e 1040 -c 2 -i 44 -a 2 -x {1.0 3.1 28 ------- null}
h -t 0.878011586621143 -s 1 -d 2 -p tcp -e 1040 -c 2 -i 44 -a 2 -x {1.0 3.1 -1 ------- null}
r -t 0.879731586621142 -s 2 -d 3 -p tcp -e 1040 -c 2 -i 28 -a 2 -x {1.0 3.1 16 ------- null}
+ -t 0.879731586621142 -s 3 -d 2 -p ack -e 40 -c 2 -i 45 -a 2 -x {3.1 1.0 16 ------- null}
- -t 0.879731586621142 -s 3 -d 2 -p ack -e 40 -c 2 -i 45 -a 2 -x {3.1 1.0 16 ------- null}
h -t 0.879731586621142 -s 3 -d 2 -p ack -e 40 -c 2 -i 45 -a 2 -x {3.1 1.0 -1 ------- null}
r -t 0.880531586621143 -s 1 -d 2 -p tcp -e 1040 -c 2 -i 39 -a 2 -x {1.0 3.1 24 ------- null}
+ -t 0.880531586621143 -s 2 -d 3 -p tcp -e 1040 -c 2 -i 39 -a 2 -x {1.0 3.1 24 ------- null}
r -t 0.882171586621142 -s 2 -d 1 -p ack -e 40 -c 2 -i 35 -a 2 -x {3.1 1.0 14 ------- null}
+ -t 0.882171586621142 -s 1 -d 2 -p tcp -e 1040 -c 2 -i 46 -a 2 -x {1.0 3.1 29 ------- null}