+ 0.1 1 0 ping 64 ------- 0 1.0 2.0 -1 0
- 0.1 1 0 ping 64 ------- 0 1.0 2.0 -1 0
r 0.110512 1 0 ping 64 ------- 0 1.0 2.0 -1 0
+ 0.110512 0 2 ping 64 ------- 0 1.0 2.0 -1 0
- 0.110512 0 2 ping 64 ------- 0 1.0 2.0 -1 0
r 0.126024 0 2 ping 64 ------- 0 1.0 2.0 -1 0
+ 0.126024 2 0 ping 64 ------- 0 2.0 1.0 -1 1
- 0.126024 2 0 ping 64 ------- 0 2.0 1.0 -1 1
r 0.141536 2 0 ping 64 ------- 0 2.0 1.0 -1 1
+ 0.141536 0 1 ping 64 ------- 0 2.0 1.0 -1 1
- 0.141536 0 1 ping 64 ------- 0 2.0 1.0 -1 1
r 0.152048 0 1 ping 64 ------- 0 2.0 1.0 -1 1
+ 0.3 2 0 ping 64 ------- 0 2.0 1.0 -1 2
- 0.3 2 0 ping 64 ------- 0 2.0 1.0 -1 2
r 0.315512 2 0 ping 64 ------- 0 2.0 1.0 -1 2
+ 0.315512 0 1 ping 64 ------- 0 2.0 1.0 -1 2
- 0.315512 0 1 ping 64 ------- 0 2.0 1.0 -1 2
r 0.326024 0 1 ping 64 ------- 0 2.0 1.0 -1 2
+ 0.326024 1 0 ping 64 ------- 0 1.0 2.0 -1 3
- 0.326024 1 0 ping 64 ------- 0 1.0 2.0 -1 3
r 0.336536 1 0 ping 64 ------- 0 1.0 2.0 -1 3
+ 0.336536 0 2 ping 64 ------- 0 1.0 2.0 -1 3
- 0.336536 0 2 ping 64 ------- 0 1.0 2.0 -1 3
r 0.352048 0 2 ping 64 ------- 0 1.0 2.0 -1 3
+ 0.5 3 0 ping 64 ------- 0 3.0 4.0 -1 4
- 0.5 3 0 ping 64 ------- 0 3.0 4.0 -1 4
+ 0.5 4 0 ping 64 ------- 0 4.0 3.0 -1 5
- 0.5 4 0 ping 64 ------- 0 4.0 3.0 -1 5
r 0.510512 3 0 ping 64 ------- 0 3.0 4.0 -1 4
+ 0.510512 0 4 ping 64 ------- 0 3.0 4.0 -1 4
- 0.510512 0 4 ping 64 ------- 0 3.0 4.0 -1 4
r 0.515512 4 0 ping 64 ------- 0 4.0 3.0 -1 5
+ 0.515512 0 3 ping 64 ------- 0 4.0 3.0 -1 5
- 0.515512 0 3 ping 64 ------- 0 4.0 3.0 -1 5
r 0.526024 0 4 ping 64 ------- 0 3.0 4.0 -1 4
+ 0.526024 4 0 ping 64 ------- 0 4.0 3.0 -1 6
- 0.526024 4 0 ping 64 ------- 0 4.0 3.0 -1 6
r 0.526024 0 3 ping 64 ------- 0 4.0 3.0 -1 5
+ 0.526024 3 0 ping 64 ------- 0 3.0 4.0 -1 7
- 0.526024 3 0 ping 64 ------- 0 3.0 4.0 -1 7
r 0.536536 3 0 ping 64 ------- 0 3.0 4.0 -1 7
+ 0.536536 0 4 ping 64 ------- 0 3.0 4.0 -1 7
- 0.536536 0 4 ping 64 ------- 0 3.0 4.0 -1 7
r 0.541536 4 0 ping 64 ------- 0 4.0 3.0 -1 6
+ 0.541536 0 3 ping 64 ------- 0 4.0 3.0 -1 6
- 0.541536 0 3 ping 64 ------- 0 4.0 3.0 -1 6
r 0.552048 0 4 ping 64 ------- 0 3.0 4.0 -1 7
r 0.552048 0 3 ping 64 ------- 0 4.0 3.0 -1 6
+ 0.7 1 0 ping 64 ------- 0 1.0 2.0 -1 8
- 0.7 1 0 ping 64 ------- 0 1.0 2.0 -1 8
r 0.710512 1 0 ping 64 ------- 0 1.0 2.0 -1 8
+ 0.710512 0 2 ping 64 ------- 0 1.0 2.0 -1 8
- 0.710512 0 2 ping 64 ------- 0 1.0 2.0 -1 8
r 0.726024 0 2 ping 64 ------- 0 1.0 2.0 -1 8
+ 0.726024 2 0 ping 64 ------- 0 2.0 1.0 -1 9
- 0.726024 2 0 ping 64 ------- 0 2.0 1.0 -1 9
r 0.741536 2 0 ping 64 ------- 0 2.0 1.0 -1 9
+ 0.741536 0 1 ping 64 ------- 0 2.0 1.0 -1 9
- 0.741536 0 1 ping 64 ------- 0 2.0 1.0 -1 9
r 0.752048 0 1 ping 64 ------- 0 2.0 1.0 -1 9
+ 0.9 3 0 ping 64 ------- 0 3.0 4.0 -1 10
- 0.9 3 0 ping 64 ------- 0 3.0 4.0 -1 10
r 0.910512 3 0 ping 64 ------- 0 3.0 4.0 -1 10
+ 0.910512 0 4 ping 64 ------- 0 3.0 4.0 -1 10
- 0.910512 0 4 ping 64 ------- 0 3.0 4.0 -1 10
r 0.926024 0 4 ping 64 ------- 0 3.0 4.0 -1 10
+ 0.926024 4 0 ping 64 ------- 0 4.0 3.0 -1 11
- 0.926024 4 0 ping 64 ------- 0 4.0 3.0 -1 11
r 0.941536 4 0 ping 64 ------- 0 4.0 3.0 -1 11
+ 0.941536 0 3 ping 64 ------- 0 4.0 3.0 -1 11
- 0.941536 0 3 ping 64 ------- 0 4.0 3.0 -1 11
r 0.952048 0 3 ping 64 ------- 0 4.0 3.0 -1 11
