+ 0.5 0 1 cbr 210 ------- 0 0.0 2.0 0 0
- 0.5 0 1 cbr 210 ------- 0 0.0 2.0 0 0
+ 0.505 0 1 cbr 210 ------- 0 0.0 2.0 1 1
- 0.505 0 1 cbr 210 ------- 0 0.0 2.0 1 1
+ 0.51 0 1 cbr 210 ------- 0 0.0 2.0 2 2
- 0.51 0 1 cbr 210 ------- 0 0.0 2.0 2 2
r 0.51168 0 1 cbr 210 ------- 0 0.0 2.0 0 0
+ 0.51168 1 2 cbr 210 ------- 0 0.0 2.0 0 0
- 0.51168 1 2 cbr 210 ------- 0 0.0 2.0 0 0
+ 0.515 0 1 cbr 210 ------- 0 0.0 2.0 3 3
- 0.515 0 1 cbr 210 ------- 0 0.0 2.0 3 3
r 0.51668 0 1 cbr 210 ------- 0 0.0 2.0 1 1
+ 0.51668 1 2 cbr 210 ------- 0 0.0 2.0 1 1
- 0.51728 1 2 cbr 210 ------- 0 0.0 2.0 1 1
+ 0.52 0 1 cbr 210 ------- 0 0.0 2.0 4 4
- 0.52 0 1 cbr 210 ------- 0 0.0 2.0 4 4
r 0.52168 0 1 cbr 210 ------- 0 0.0 2.0 2 2
+ 0.52168 1 2 cbr 210 ------- 0 0.0 2.0 2 2
- 0.52288 1 2 cbr 210 ------- 0 0.0 2.0 2 2
+ 0.525 0 1 cbr 210 ------- 0 0.0 2.0 5 5
- 0.525 0 1 cbr 210 ------- 0 0.0 2.0 5 5
r 0.52668 0 1 cbr 210 ------- 0 0.0 2.0 3 3
+ 0.52668 1 2 cbr 210 ------- 0 0.0 2.0 3 3
- 0.52848 1 2 cbr 210 ------- 0 0.0 2.0 3 3
+ 0.53 0 1 cbr 210 ------- 0 0.0 2.0 6 6
- 0.53 0 1 cbr 210 ------- 0 0.0 2.0 6 6
r 0.53168 0 1 cbr 210 ------- 0 0.0 2.0 4 4
+ 0.53168 1 2 cbr 210 ------- 0 0.0 2.0 4 4
r 0.53228 1 2 cbr 210 ------- 0 0.0 2.0 0 0
- 0.53408 1 2 cbr 210 ------- 0 0.0 2.0 4 4
+ 0.535 0 1 cbr 210 ------- 0 0.0 2.0 7 7
- 0.535 0 1 cbr 210 ------- 0 0.0 2.0 7 7
r 0.53668 0 1 cbr 210 ------- 0 0.0 2.0 5 5
+ 0.53668 1 2 cbr 210 ------- 0 0.0 2.0 5 5
r 0.53788 1 2 cbr 210 ------- 0 0.0 2.0 1 1
- 0.53968 1 2 cbr 210 ------- 0 0.0 2.0 5 5
+ 0.54 0 1 cbr 210 ------- 0 0.0 2.0 8 8
- 0.54 0 1 cbr 210 ------- 0 0.0 2.0 8 8
r 0.54168 0 1 cbr 210 ------- 0 0.0 2.0 6 6
+ 0.54168 1 2 cbr 210 ------- 0 0.0 2.0 6 6
r 0.54348 1 2 cbr 210 ------- 0 0.0 2.0 2 2
+ 0.545 0 1 cbr 210 ------- 0 0.0 2.0 9 9
- 0.545 0 1 cbr 210 ------- 0 0.0 2.0 9 9
- 0.54528 1 2 cbr 210 ------- 0 0.0 2.0 6 6
r 0.54668 0 1 cbr 210 ------- 0 0.0 2.0 7 7
+ 0.54668 1 2 cbr 210 ------- 0 0.0 2.0 7 7
r 0.54908 1 2 cbr 210 ------- 0 0.0 2.0 3 3
+ 0.55 0 1 cbr 210 ------- 0 0.0 2.0 10 10
- 0.55 0 1 cbr 210 ------- 0 0.0 2.0 10 10
- 0.55088 1 2 cbr 210 ------- 0 0.0 2.0 7 7
r 0.55168 0 1 cbr 210 ------- 0 0.0 2.0 8 8
+ 0.55168 1 2 cbr 210 ------- 0 0.0 2.0 8 8
r 0.55468 1 2 cbr 210 ------- 0 0.0 2.0 4 4
+ 0.555 0 1 cbr 210 ------- 0 0.0 2.0 11 11
- 0.555 0 1 cbr 210 ------- 0 0.0 2.0 11 11
- 0.55648 1 2 cbr 210 ------- 0 0.0 2.0 8 8
r 0.55668 0 1 cbr 210 ------- 0 0.0 2.0 9 9
+ 0.55668 1 2 cbr 210 ------- 0 0.0 2.0 9 9
+ 0.56 0 1 cbr 210 ------- 0 0.0 2.0 12 12
- 0.56 0 1 cbr 210 ------- 0 0.0 2.0 12 12
r 0.56028 1 2 cbr 210 ------- 0 0.0 2.0 5 5
r 0.56168 0 1 cbr 210 ------- 0 0.0 2.0 10 10
+ 0.56168 1 2 cbr 210 ------- 0 0.0 2.0 10 10
- 0.56208 1 2 cbr 210 ------- 0 0.0 2.0 9 9
+ 0.565 0 1 cbr 210 ------- 0 0.0 2.0 13 13
- 0.565 0 1 cbr 210 ------- 0 0.0 2.0 13 13
r 0.56588 1 2 cbr 210 ------- 0 0.0 2.0 6 6
r 0.56668 0 1 cbr 210 ------- 0 0.0 2.0 11 11
+ 0.56668 1 2 cbr 210 ------- 0 0.0 2.0 11 11
- 0.56768 1 2 cbr 210 ------- 0 0.0 2.0 10 10
+ 0.57 0 1 cbr 210 ------- 0 0.0 2.0 14 14
- 0.57 0 1 cbr 210 ------- 0 0.0 2.0 14 14
r 0.57148 1 2 cbr 210 ------- 0 0.0 2.0 7 7
r 0.57168 0 1 cbr 210 ------- 0 0.0 2.0 12 12
+ 0.57168 1 2 cbr 210 ------- 0 0.0 2.0 12 12
- 0.57328 1 2 cbr 210 ------- 0 0.0 2.0 11 11
+ 0.575 0 1 cbr 210 ------- 0 0.0 2.0 15 15
- 0.575 0 1 cbr 210 ------- 0 0.0 2.0 15 15
r 0.57668 0 1 cbr 210 ------- 0 0.0 2.0 13 13
+ 0.57668 1 2 cbr 210 ------- 0 0.0 2.0 13 13
r 0.57708 1 2 cbr 210 ------- 0 0.0 2.0 8 8
- 0.57888 1 2 cbr 210 ------- 0 0.0 2.0 12 12
+ 0.58 0 1 cbr 210 ------- 0 0.0 2.0 16 16
- 0.58 0 1 cbr 210 ------- 0 0.0 2.0 16 16
r 0.58168 0 1 cbr 210 ------- 0 0.0 2.0 14 14
+ 0.58168 1 2 cbr 210 ------- 0 0.0 2.0 14 14
r 0.58268 1 2 cbr 210 ------- 0 0.0 2.0 9 9
- 0.58448 1 2 cbr 210 ------- 0 0.0 2.0 13 13
+ 0.585 0 1 cbr 210 ------- 0 0.0 2.0 17 17
- 0.585 0 1 cbr 210 ------- 0 0.0 2.0 17 17
r 0.58668 0 1 cbr 210 ------- 0 0.0 2.0 15 15
+ 0.58668 1 2 cbr 210 ------- 0 0.0 2.0 15 15
r 0.58828 1 2 cbr 210 ------- 0 0.0 2.0 10 10
+ 0.59 0 1 cbr 210 ------- 0 0.0 2.0 18 18
- 0.59 0 1 cbr 210 ------- 0 0.0 2.0 18 18
- 0.59008 1 2 cbr 210 ------- 0 0.0 2.0 14 14
r 0.59168 0 1 cbr 210 ------- 0 0.0 2.0 16 16
+ 0.59168 1 2 cbr 210 ------- 0 0.0 2.0 16 16
r 0.59388 1 2 cbr 210 ------- 0 0.0 2.0 11 11
+ 0.595 0 1 cbr 210 ------- 0 0.0 2.0 19 19
- 0.595 0 1 cbr 210 ------- 0 0.0 2.0 19 19
- 0.59568 1 2 cbr 210 ------- 0 0.0 2.0 15 15
r 0.59668 0 1 cbr 210 ------- 0 0.0 2.0 17 17
+ 0.59668 1 2 cbr 210 ------- 0 0.0 2.0 17 17
r 0.59948 1 2 cbr 210 ------- 0 0.0 2.0 12 12
+ 0.6 0 1 cbr 210 ------- 0 0.0 2.0 20 20
- 0.6 0 1 cbr 210 ------- 0 0.0 2.0 20 20
- 0.60128 1 2 cbr 210 ------- 0 0.0 2.0 16 16
r 0.60168 0 1 cbr 210 ------- 0 0.0 2.0 18 18
+ 0.60168 1 2 cbr 210 ------- 0 0.0 2.0 18 18
+ 0.605 0 1 cbr 210 ------- 0 0.0 2.0 21 21
- 0.605 0 1 cbr 210 ------- 0 0.0 2.0 21 21
r 0.60508 1 2 cbr 210 ------- 0 0.0 2.0 13 13
r 0.60668 0 1 cbr 210 ------- 0 0.0 2.0 19 19
+ 0.60668 1 2 cbr 210 ------- 0 0.0 2.0 19 19
- 0.60688 1 2 cbr 210 ------- 0 0.0 2.0 17 17
+ 0.61 0 1 cbr 210 ------- 0 0.0 2.0 22 22
- 0.61 0 1 cbr 210 ------- 0 0.0 2.0 22 22
r 0.61068 1 2 cbr 210 ------- 0 0.0 2.0 14 14
r 0.61168 0 1 cbr 210 ------- 0 0.0 2.0 20 20
+ 0.61168 1 2 cbr 210 ------- 0 0.0 2.0 20 20
- 0.61248 1 2 cbr 210 ------- 0 0.0 2.0 18 18
+ 0.615 0 1 cbr 210 ------- 0 0.0 2.0 23 23
- 0.615 0 1 cbr 210 ------- 0 0.0 2.0 23 23
r 0.61628 1 2 cbr 210 ------- 0 0.0 2.0 15 15
r 0.61668 0 1 cbr 210 ------- 0 0.0 2.0 21 21
+ 0.61668 1 2 cbr 210 ------- 0 0.0 2.0 21 21
- 0.61808 1 2 cbr 210 ------- 0 0.0 2.0 19 19
+ 0.62 0 1 cbr 210 ------- 0 0.0 2.0 24 24
- 0.62 0 1 cbr 210 ------- 0 0.0 2.0 24 24
r 0.62168 0 1 cbr 210 ------- 0 0.0 2.0 22 22
+ 0.62168 1 2 cbr 210 ------- 0 0.0 2.0 22 22
r 0.62188 1 2 cbr 210 ------- 0 0.0 2.0 16 16
- 0.62368 1 2 cbr 210 ------- 0 0.0 2.0 20 20
+ 0.625 0 1 cbr 210 ------- 0 0.0 2.0 25 25
- 0.625 0 1 cbr 210 ------- 0 0.0 2.0 25 25
r 0.62668 0 1 cbr 210 ------- 0 0.0 2.0 23 23
+ 0.62668 1 2 cbr 210 ------- 0 0.0 2.0 23 23
r 0.62748 1 2 cbr 210 ------- 0 0.0 2.0 17 17
- 0.62928 1 2 cbr 210 ------- 0 0.0 2.0 21 21
+ 0.63 0 1 cbr 210 ------- 0 0.0 2.0 26 26
- 0.63 0 1 cbr 210 ------- 0 0.0 2.0 26 26
r 0.63168 0 1 cbr 210 ------- 0 0.0 2.0 24 24
+ 0.63168 1 2 cbr 210 ------- 0 0.0 2.0 24 24
r 0.63308 1 2 cbr 210 ------- 0 0.0 2.0 18 18
- 0.63488 1 2 cbr 210 ------- 0 0.0 2.0 22 22
+ 0.635 0 1 cbr 210 ------- 0 0.0 2.0 27 27
- 0.635 0 1 cbr 210 ------- 0 0.0 2.0 27 27
r 0.63668 0 1 cbr 210 ------- 0 0.0 2.0 25 25
+ 0.63668 1 2 cbr 210 ------- 0 0.0 2.0 25 25
r 0.63868 1 2 cbr 210 ------- 0 0.0 2.0 19 19
+ 0.64 0 1 cbr 210 ------- 0 0.0 2.0 28 28
- 0.64 0 1 cbr 210 ------- 0 0.0 2.0 28 28
- 0.64048 1 2 cbr 210 ------- 0 0.0 2.0 23 23
r 0.64168 0 1 cbr 210 ------- 0 0.0 2.0 26 26
+ 0.64168 1 2 cbr 210 ------- 0 0.0 2.0 26 26
r 0.64428 1 2 cbr 210 ------- 0 0.0 2.0 20 20
+ 0.645 0 1 cbr 210 ------- 0 0.0 2.0 29 29
- 0.645 0 1 cbr 210 ------- 0 0.0 2.0 29 29
- 0.64608 1 2 cbr 210 ------- 0 0.0 2.0 24 24
r 0.64668 0 1 cbr 210 ------- 0 0.0 2.0 27 27
+ 0.64668 1 2 cbr 210 ------- 0 0.0 2.0 27 27
r 0.64988 1 2 cbr 210 ------- 0 0.0 2.0 21 21
+ 0.65 0 1 cbr 210 ------- 0 0.0 2.0 30 30
- 0.65 0 1 cbr 210 ------- 0 0.0 2.0 30 30
r 0.65168 0 1 cbr 210 ------- 0 0.0 2.0 28 28
+ 0.65168 1 2 cbr 210 ------- 0 0.0 2.0 28 28
- 0.65168 1 2 cbr 210 ------- 0 0.0 2.0 25 25
+ 0.655 0 1 cbr 210 ------- 0 0.0 2.0 31 31
- 0.655 0 1 cbr 210 ------- 0 0.0 2.0 31 31
r 0.65548 1 2 cbr 210 ------- 0 0.0 2.0 22 22
r 0.65668 0 1 cbr 210 ------- 0 0.0 2.0 29 29
+ 0.65668 1 2 cbr 210 ------- 0 0.0 2.0 29 29
- 0.65728 1 2 cbr 210 ------- 0 0.0 2.0 26 26
+ 0.66 0 1 cbr 210 ------- 0 0.0 2.0 32 32
- 0.66 0 1 cbr 210 ------- 0 0.0 2.0 32 32
r 0.66108 1 2 cbr 210 ------- 0 0.0 2.0 23 23
r 0.66168 0 1 cbr 210 ------- 0 0.0 2.0 30 30
+ 0.66168 1 2 cbr 210 ------- 0 0.0 2.0 30 30
- 0.66288 1 2 cbr 210 ------- 0 0.0 2.0 27 27
+ 0.665 0 1 cbr 210 ------- 0 0.0 2.0 33 33
- 0.665 0 1 cbr 210 ------- 0 0.0 2.0 33 33
r 0.66668 0 1 cbr 210 ------- 0 0.0 2.0 31 31
+ 0.66668 1 2 cbr 210 ------- 0 0.0 2.0 31 31
r 0.66668 1 2 cbr 210 ------- 0 0.0 2.0 24 24
- 0.66848 1 2 cbr 210 ------- 0 0.0 2.0 28 28
+ 0.67 0 1 cbr 210 ------- 0 0.0 2.0 34 34
- 0.67 0 1 cbr 210 ------- 0 0.0 2.0 34 34
r 0.67168 0 1 cbr 210 ------- 0 0.0 2.0 32 32
+ 0.67168 1 2 cbr 210 ------- 0 0.0 2.0 32 32
r 0.67228 1 2 cbr 210 ------- 0 0.0 2.0 25 25
- 0.67408 1 2 cbr 210 ------- 0 0.0 2.0 29 29
+ 0.675 0 1 cbr 210 ------- 0 0.0 2.0 35 35
- 0.675 0 1 cbr 210 ------- 0 0.0 2.0 35 35
r 0.67668 0 1 cbr 210 ------- 0 0.0 2.0 33 33
+ 0.67668 1 2 cbr 210 ------- 0 0.0 2.0 33 33
r 0.67788 1 2 cbr 210 ------- 0 0.0 2.0 26 26
- 0.67968 1 2 cbr 210 ------- 0 0.0 2.0 30 30
+ 0.68 0 1 cbr 210 ------- 0 0.0 2.0 36 36
- 0.68 0 1 cbr 210 ------- 0 0.0 2.0 36 36
r 0.68168 0 1 cbr 210 ------- 0 0.0 2.0 34 34
+ 0.68168 1 2 cbr 210 ------- 0 0.0 2.0 34 34
r 0.68348 1 2 cbr 210 ------- 0 0.0 2.0 27 27
+ 0.685 0 1 cbr 210 ------- 0 0.0 2.0 37 37
- 0.685 0 1 cbr 210 ------- 0 0.0 2.0 37 37
- 0.68528 1 2 cbr 210 ------- 0 0.0 2.0 31 31
r 0.68668 0 1 cbr 210 ------- 0 0.0 2.0 35 35
+ 0.68668 1 2 cbr 210 ------- 0 0.0 2.0 35 35
r 0.68908 1 2 cbr 210 ------- 0 0.0 2.0 28 28
+ 0.69 0 1 cbr 210 ------- 0 0.0 2.0 38 38
- 0.69 0 1 cbr 210 ------- 0 0.0 2.0 38 38
- 0.69088 1 2 cbr 210 ------- 0 0.0 2.0 32 32
r 0.69168 0 1 cbr 210 ------- 0 0.0 2.0 36 36
+ 0.69168 1 2 cbr 210 ------- 0 0.0 2.0 36 36
r 0.69468 1 2 cbr 210 ------- 0 0.0 2.0 29 29
+ 0.695 0 1 cbr 210 ------- 0 0.0 2.0 39 39
- 0.695 0 1 cbr 210 ------- 0 0.0 2.0 39 39
- 0.69648 1 2 cbr 210 ------- 0 0.0 2.0 33 33
r 0.69668 0 1 cbr 210 ------- 0 0.0 2.0 37 37
+ 0.69668 1 2 cbr 210 ------- 0 0.0 2.0 37 37
+ 0.7 0 1 cbr 210 ------- 0 0.0 2.0 40 40
- 0.7 0 1 cbr 210 ------- 0 0.0 2.0 40 40
r 0.70028 1 2 cbr 210 ------- 0 0.0 2.0 30 30
r 0.70168 0 1 cbr 210 ------- 0 0.0 2.0 38 38
+ 0.70168 1 2 cbr 210 ------- 0 0.0 2.0 38 38
- 0.70208 1 2 cbr 210 ------- 0 0.0 2.0 34 34
+ 0.705 0 1 cbr 210 ------- 0 0.0 2.0 41 41
- 0.705 0 1 cbr 210 ------- 0 0.0 2.0 41 41
r 0.70588 1 2 cbr 210 ------- 0 0.0 2.0 31 31
r 0.70668 0 1 cbr 210 ------- 0 0.0 2.0 39 39
+ 0.70668 1 2 cbr 210 ------- 0 0.0 2.0 39 39
- 0.70768 1 2 cbr 210 ------- 0 0.0 2.0 35 35
+ 0.71 0 1 cbr 210 ------- 0 0.0 2.0 42 42
- 0.71 0 1 cbr 210 ------- 0 0.0 2.0 42 42
r 0.71148 1 2 cbr 210 ------- 0 0.0 2.0 32 32
r 0.71168 0 1 cbr 210 ------- 0 0.0 2.0 40 40
+ 0.71168 1 2 cbr 210 ------- 0 0.0 2.0 40 40
- 0.71328 1 2 cbr 210 ------- 0 0.0 2.0 36 36
+ 0.715 0 1 cbr 210 ------- 0 0.0 2.0 43 43
- 0.715 0 1 cbr 210 ------- 0 0.0 2.0 43 43
r 0.71668 0 1 cbr 210 ------- 0 0.0 2.0 41 41
+ 0.71668 1 2 cbr 210 ------- 0 0.0 2.0 41 41
r 0.71708 1 2 cbr 210 ------- 0 0.0 2.0 33 33
- 0.71888 1 2 cbr 210 ------- 0 0.0 2.0 37 37
+ 0.72 0 1 cbr 210 ------- 0 0.0 2.0 44 44
- 0.72 0 1 cbr 210 ------- 0 0.0 2.0 44 44
r 0.72168 0 1 cbr 210 ------- 0 0.0 2.0 42 42
+ 0.72168 1 2 cbr 210 ------- 0 0.0 2.0 42 42
r 0.72268 1 2 cbr 210 ------- 0 0.0 2.0 34 34
- 0.72448 1 2 cbr 210 ------- 0 0.0 2.0 38 38
+ 0.725 0 1 cbr 210 ------- 0 0.0 2.0 45 45
- 0.725 0 1 cbr 210 ------- 0 0.0 2.0 45 45
r 0.72668 0 1 cbr 210 ------- 0 0.0 2.0 43 43
+ 0.72668 1 2 cbr 210 ------- 0 0.0 2.0 43 43
r 0.72828 1 2 cbr 210 ------- 0 0.0 2.0 35 35
+ 0.73 0 1 cbr 210 ------- 0 0.0 2.0 46 46
- 0.73 0 1 cbr 210 ------- 0 0.0 2.0 46 46
- 0.73008 1 2 cbr 210 ------- 0 0.0 2.0 39 39
r 0.73168 0 1 cbr 210 ------- 0 0.0 2.0 44 44
+ 0.73168 1 2 cbr 210 ------- 0 0.0 2.0 44 44
r 0.73388 1 2 cbr 210 ------- 0 0.0 2.0 36 36
+ 0.735 0 1 cbr 210 ------- 0 0.0 2.0 47 47
- 0.735 0 1 cbr 210 ------- 0 0.0 2.0 47 47
- 0.73568 1 2 cbr 210 ------- 0 0.0 2.0 40 40
r 0.73668 0 1 cbr 210 ------- 0 0.0 2.0 45 45
+ 0.73668 1 2 cbr 210 ------- 0 0.0 2.0 45 45
r 0.73948 1 2 cbr 210 ------- 0 0.0 2.0 37 37
+ 0.74 0 1 cbr 210 ------- 0 0.0 2.0 48 48
- 0.74 0 1 cbr 210 ------- 0 0.0 2.0 48 48
- 0.74128 1 2 cbr 210 ------- 0 0.0 2.0 41 41
r 0.74168 0 1 cbr 210 ------- 0 0.0 2.0 46 46
+ 0.74168 1 2 cbr 210 ------- 0 0.0 2.0 46 46
+ 0.745 0 1 cbr 210 ------- 0 0.0 2.0 49 49
- 0.745 0 1 cbr 210 ------- 0 0.0 2.0 49 49
r 0.74508 1 2 cbr 210 ------- 0 0.0 2.0 38 38
r 0.74668 0 1 cbr 210 ------- 0 0.0 2.0 47 47
+ 0.74668 1 2 cbr 210 ------- 0 0.0 2.0 47 47
- 0.74688 1 2 cbr 210 ------- 0 0.0 2.0 42 42
+ 0.75 0 1 cbr 210 ------- 0 0.0 2.0 50 50
- 0.75 0 1 cbr 210 ------- 0 0.0 2.0 50 50
r 0.75068 1 2 cbr 210 ------- 0 0.0 2.0 39 39
r 0.75168 0 1 cbr 210 ------- 0 0.0 2.0 48 48
+ 0.75168 1 2 cbr 210 ------- 0 0.0 2.0 48 48
- 0.75248 1 2 cbr 210 ------- 0 0.0 2.0 43 43
+ 0.755 0 1 cbr 210 ------- 0 0.0 2.0 51 51
- 0.755 0 1 cbr 210 ------- 0 0.0 2.0 51 51
r 0.75628 1 2 cbr 210 ------- 0 0.0 2.0 40 40
r 0.75668 0 1 cbr 210 ------- 0 0.0 2.0 49 49
+ 0.75668 1 2 cbr 210 ------- 0 0.0 2.0 49 49
- 0.75808 1 2 cbr 210 ------- 0 0.0 2.0 44 44
+ 0.76 0 1 cbr 210 ------- 0 0.0 2.0 52 52
- 0.76 0 1 cbr 210 ------- 0 0.0 2.0 52 52
r 0.76168 0 1 cbr 210 ------- 0 0.0 2.0 50 50
+ 0.76168 1 2 cbr 210 ------- 0 0.0 2.0 50 50
r 0.76188 1 2 cbr 210 ------- 0 0.0 2.0 41 41
- 0.76368 1 2 cbr 210 ------- 0 0.0 2.0 45 45
+ 0.765 0 1 cbr 210 ------- 0 0.0 2.0 53 53
- 0.765 0 1 cbr 210 ------- 0 0.0 2.0 53 53
r 0.76668 0 1 cbr 210 ------- 0 0.0 2.0 51 51
+ 0.76668 1 2 cbr 210 ------- 0 0.0 2.0 51 51
r 0.76748 1 2 cbr 210 ------- 0 0.0 2.0 42 42
- 0.76928 1 2 cbr 210 ------- 0 0.0 2.0 46 46
+ 0.77 0 1 cbr 210 ------- 0 0.0 2.0 54 54
- 0.77 0 1 cbr 210 ------- 0 0.0 2.0 54 54
r 0.77168 0 1 cbr 210 ------- 0 0.0 2.0 52 52
+ 0.77168 1 2 cbr 210 ------- 0 0.0 2.0 52 52
r 0.77308 1 2 cbr 210 ------- 0 0.0 2.0 43 43
- 0.77488 1 2 cbr 210 ------- 0 0.0 2.0 47 47
+ 0.775 0 1 cbr 210 ------- 0 0.0 2.0 55 55
- 0.775 0 1 cbr 210 ------- 0 0.0 2.0 55 55
r 0.77668 0 1 cbr 210 ------- 0 0.0 2.0 53 53
+ 0.77668 1 2 cbr 210 ------- 0 0.0 2.0 53 53
r 0.77868 1 2 cbr 210 ------- 0 0.0 2.0 44 44
+ 0.78 0 1 cbr 210 ------- 0 0.0 2.0 56 56
- 0.78 0 1 cbr 210 ------- 0 0.0 2.0 56 56
- 0.78048 1 2 cbr 210 ------- 0 0.0 2.0 48 48
r 0.78168 0 1 cbr 210 ------- 0 0.0 2.0 54 54
+ 0.78168 1 2 cbr 210 ------- 0 0.0 2.0 54 54
r 0.78428 1 2 cbr 210 ------- 0 0.0 2.0 45 45
+ 0.785 0 1 cbr 210 ------- 0 0.0 2.0 57 57
- 0.785 0 1 cbr 210 ------- 0 0.0 2.0 57 57
- 0.78608 1 2 cbr 210 ------- 0 0.0 2.0 49 49
r 0.78668 0 1 cbr 210 ------- 0 0.0 2.0 55 55
+ 0.78668 1 2 cbr 210 ------- 0 0.0 2.0 55 55
r 0.78988 1 2 cbr 210 ------- 0 0.0 2.0 46 46
+ 0.79 0 1 cbr 210 ------- 0 0.0 2.0 58 58
- 0.79 0 1 cbr 210 ------- 0 0.0 2.0 58 58
r 0.79168 0 1 cbr 210 ------- 0 0.0 2.0 56 56
+ 0.79168 1 2 cbr 210 ------- 0 0.0 2.0 56 56
- 0.79168 1 2 cbr 210 ------- 0 0.0 2.0 50 50
+ 0.795 0 1 cbr 210 ------- 0 0.0 2.0 59 59
- 0.795 0 1 cbr 210 ------- 0 0.0 2.0 59 59
r 0.79548 1 2 cbr 210 ------- 0 0.0 2.0 47 47
r 0.79668 0 1 cbr 210 ------- 0 0.0 2.0 57 57
+ 0.79668 1 2 cbr 210 ------- 0 0.0 2.0 57 57
- 0.79728 1 2 cbr 210 ------- 0 0.0 2.0 51 51
+ 0.8 0 1 cbr 210 ------- 0 0.0 2.0 60 60
- 0.8 0 1 cbr 210 ------- 0 0.0 2.0 60 60
r 0.80108 1 2 cbr 210 ------- 0 0.0 2.0 48 48
r 0.80168 0 1 cbr 210 ------- 0 0.0 2.0 58 58
+ 0.80168 1 2 cbr 210 ------- 0 0.0 2.0 58 58
- 0.80288 1 2 cbr 210 ------- 0 0.0 2.0 52 52
+ 0.805 0 1 cbr 210 ------- 0 0.0 2.0 61 61
- 0.805 0 1 cbr 210 ------- 0 0.0 2.0 61 61
r 0.80668 0 1 cbr 210 ------- 0 0.0 2.0 59 59
+ 0.80668 1 2 cbr 210 ------- 0 0.0 2.0 59 59
r 0.80668 1 2 cbr 210 ------- 0 0.0 2.0 49 49
- 0.80848 1 2 cbr 210 ------- 0 0.0 2.0 53 53
+ 0.81 0 1 cbr 210 ------- 0 0.0 2.0 62 62
- 0.81 0 1 cbr 210 ------- 0 0.0 2.0 62 62
r 0.81168 0 1 cbr 210 ------- 0 0.0 2.0 60 60
+ 0.81168 1 2 cbr 210 ------- 0 0.0 2.0 60 60
r 0.81228 1 2 cbr 210 ------- 0 0.0 2.0 50 50
- 0.81408 1 2 cbr 210 ------- 0 0.0 2.0 54 54
+ 0.815 0 1 cbr 210 ------- 0 0.0 2.0 63 63
- 0.815 0 1 cbr 210 ------- 0 0.0 2.0 63 63
r 0.81668 0 1 cbr 210 ------- 0 0.0 2.0 61 61
+ 0.81668 1 2 cbr 210 ------- 0 0.0 2.0 61 61
r 0.81788 1 2 cbr 210 ------- 0 0.0 2.0 51 51
- 0.81968 1 2 cbr 210 ------- 0 0.0 2.0 55 55
+ 0.82 0 1 cbr 210 ------- 0 0.0 2.0 64 64
- 0.82 0 1 cbr 210 ------- 0 0.0 2.0 64 64
r 0.82168 0 1 cbr 210 ------- 0 0.0 2.0 62 62
+ 0.82168 1 2 cbr 210 ------- 0 0.0 2.0 62 62
r 0.82348 1 2 cbr 210 ------- 0 0.0 2.0 52 52
+ 0.825 0 1 cbr 210 ------- 0 0.0 2.0 65 65
- 0.825 0 1 cbr 210 ------- 0 0.0 2.0 65 65
- 0.82528 1 2 cbr 210 ------- 0 0.0 2.0 56 56
r 0.82668 0 1 cbr 210 ------- 0 0.0 2.0 63 63
+ 0.82668 1 2 cbr 210 ------- 0 0.0 2.0 63 63
r 0.82908 1 2 cbr 210 ------- 0 0.0 2.0 53 53
+ 0.83 0 1 cbr 210 ------- 0 0.0 2.0 66 66
- 0.83 0 1 cbr 210 ------- 0 0.0 2.0 66 66
- 0.83088 1 2 cbr 210 ------- 0 0.0 2.0 57 57
r 0.83168 0 1 cbr 210 ------- 0 0.0 2.0 64 64
+ 0.83168 1 2 cbr 210 ------- 0 0.0 2.0 64 64
r 0.83468 1 2 cbr 210 ------- 0 0.0 2.0 54 54
+ 0.835 0 1 cbr 210 ------- 0 0.0 2.0 67 67
- 0.835 0 1 cbr 210 ------- 0 0.0 2.0 67 67
- 0.83648 1 2 cbr 210 ------- 0 0.0 2.0 58 58
r 0.83668 0 1 cbr 210 ------- 0 0.0 2.0 65 65
+ 0.83668 1 2 cbr 210 ------- 0 0.0 2.0 65 65
+ 0.84 0 1 cbr 210 ------- 0 0.0 2.0 68 68
- 0.84 0 1 cbr 210 ------- 0 0.0 2.0 68 68
r 0.84028 1 2 cbr 210 ------- 0 0.0 2.0 55 55
r 0.84168 0 1 cbr 210 ------- 0 0.0 2.0 66 66
+ 0.84168 1 2 cbr 210 ------- 0 0.0 2.0 66 66
- 0.84208 1 2 cbr 210 ------- 0 0.0 2.0 59 59
+ 0.845 0 1 cbr 210 ------- 0 0.0 2.0 69 69
- 0.845 0 1 cbr 210 ------- 0 0.0 2.0 69 69
r 0.84588 1 2 cbr 210 ------- 0 0.0 2.0 56 56
r 0.84668 0 1 cbr 210 ------- 0 0.0 2.0 67 67
+ 0.84668 1 2 cbr 210 ------- 0 0.0 2.0 67 67
- 0.84768 1 2 cbr 210 ------- 0 0.0 2.0 60 60
+ 0.85 0 1 cbr 210 ------- 0 0.0 2.0 70 70
- 0.85 0 1 cbr 210 ------- 0 0.0 2.0 70 70
r 0.85148 1 2 cbr 210 ------- 0 0.0 2.0 57 57
r 0.85168 0 1 cbr 210 ------- 0 0.0 2.0 68 68
+ 0.85168 1 2 cbr 210 ------- 0 0.0 2.0 68 68
- 0.85328 1 2 cbr 210 ------- 0 0.0 2.0 61 61
+ 0.855 0 1 cbr 210 ------- 0 0.0 2.0 71 71
- 0.855 0 1 cbr 210 ------- 0 0.0 2.0 71 71
r 0.85668 0 1 cbr 210 ------- 0 0.0 2.0 69 69
+ 0.85668 1 2 cbr 210 ------- 0 0.0 2.0 69 69
r 0.85708 1 2 cbr 210 ------- 0 0.0 2.0 58 58
- 0.85888 1 2 cbr 210 ------- 0 0.0 2.0 62 62
+ 0.86 0 1 cbr 210 ------- 0 0.0 2.0 72 72
- 0.86 0 1 cbr 210 ------- 0 0.0 2.0 72 72
r 0.86168 0 1 cbr 210 ------- 0 0.0 2.0 70 70
+ 0.86168 1 2 cbr 210 ------- 0 0.0 2.0 70 70
r 0.86268 1 2 cbr 210 ------- 0 0.0 2.0 59 59
- 0.86448 1 2 cbr 210 ------- 0 0.0 2.0 63 63
+ 0.865 0 1 cbr 210 ------- 0 0.0 2.0 73 73
- 0.865 0 1 cbr 210 ------- 0 0.0 2.0 73 73
r 0.86668 0 1 cbr 210 ------- 0 0.0 2.0 71 71
+ 0.86668 1 2 cbr 210 ------- 0 0.0 2.0 71 71
r 0.86828 1 2 cbr 210 ------- 0 0.0 2.0 60 60
+ 0.87 0 1 cbr 210 ------- 0 0.0 2.0 74 74
- 0.87 0 1 cbr 210 ------- 0 0.0 2.0 74 74
- 0.87008 1 2 cbr 210 ------- 0 0.0 2.0 64 64
r 0.87168 0 1 cbr 210 ------- 0 0.0 2.0 72 72
+ 0.87168 1 2 cbr 210 ------- 0 0.0 2.0 72 72
r 0.87388 1 2 cbr 210 ------- 0 0.0 2.0 61 61
+ 0.875 0 1 cbr 210 ------- 0 0.0 2.0 75 75
- 0.875 0 1 cbr 210 ------- 0 0.0 2.0 75 75
- 0.87568 1 2 cbr 210 ------- 0 0.0 2.0 65 65
r 0.87668 0 1 cbr 210 ------- 0 0.0 2.0 73 73
+ 0.87668 1 2 cbr 210 ------- 0 0.0 2.0 73 73
r 0.87948 1 2 cbr 210 ------- 0 0.0 2.0 62 62
+ 0.88 0 1 cbr 210 ------- 0 0.0 2.0 76 76
- 0.88 0 1 cbr 210 ------- 0 0.0 2.0 76 76
- 0.88128 1 2 cbr 210 ------- 0 0.0 2.0 66 66
r 0.88168 0 1 cbr 210 ------- 0 0.0 2.0 74 74
+ 0.88168 1 2 cbr 210 ------- 0 0.0 2.0 74 74
+ 0.885 0 1 cbr 210 ------- 0 0.0 2.0 77 77
- 0.885 0 1 cbr 210 ------- 0 0.0 2.0 77 77
r 0.88508 1 2 cbr 210 ------- 0 0.0 2.0 63 63
r 0.88668 0 1 cbr 210 ------- 0 0.0 2.0 75 75
+ 0.88668 1 2 cbr 210 ------- 0 0.0 2.0 75 75
- 0.88688 1 2 cbr 210 ------- 0 0.0 2.0 67 67
+ 0.89 0 1 cbr 210 ------- 0 0.0 2.0 78 78
- 0.89 0 1 cbr 210 ------- 0 0.0 2.0 78 78
r 0.89068 1 2 cbr 210 ------- 0 0.0 2.0 64 64
r 0.89168 0 1 cbr 210 ------- 0 0.0 2.0 76 76
+ 0.89168 1 2 cbr 210 ------- 0 0.0 2.0 76 76
- 0.89248 1 2 cbr 210 ------- 0 0.0 2.0 68 68
+ 0.895 0 1 cbr 210 ------- 0 0.0 2.0 79 79
- 0.895 0 1 cbr 210 ------- 0 0.0 2.0 79 79
r 0.89628 1 2 cbr 210 ------- 0 0.0 2.0 65 65
r 0.89668 0 1 cbr 210 ------- 0 0.0 2.0 77 77
+ 0.89668 1 2 cbr 210 ------- 0 0.0 2.0 77 77
- 0.89808 1 2 cbr 210 ------- 0 0.0 2.0 69 69
+ 0.9 0 1 cbr 210 ------- 0 0.0 2.0 80 80
- 0.9 0 1 cbr 210 ------- 0 0.0 2.0 80 80
r 0.90168 0 1 cbr 210 ------- 0 0.0 2.0 78 78
+ 0.90168 1 2 cbr 210 ------- 0 0.0 2.0 78 78
r 0.90188 1 2 cbr 210 ------- 0 0.0 2.0 66 66
- 0.90368 1 2 cbr 210 ------- 0 0.0 2.0 70 70
+ 0.905 0 1 cbr 210 ------- 0 0.0 2.0 81 81
- 0.905 0 1 cbr 210 ------- 0 0.0 2.0 81 81
r 0.90668 0 1 cbr 210 ------- 0 0.0 2.0 79 79
+ 0.90668 1 2 cbr 210 ------- 0 0.0 2.0 79 79
r 0.90748 1 2 cbr 210 ------- 0 0.0 2.0 67 67
- 0.90928 1 2 cbr 210 ------- 0 0.0 2.0 71 71
+ 0.91 0 1 cbr 210 ------- 0 0.0 2.0 82 82
- 0.91 0 1 cbr 210 ------- 0 0.0 2.0 82 82
r 0.91168 0 1 cbr 210 ------- 0 0.0 2.0 80 80
+ 0.91168 1 2 cbr 210 ------- 0 0.0 2.0 80 80
r 0.91308 1 2 cbr 210 ------- 0 0.0 2.0 68 68
- 0.91488 1 2 cbr 210 ------- 0 0.0 2.0 72 72
+ 0.915 0 1 cbr 210 ------- 0 0.0 2.0 83 83
- 0.915 0 1 cbr 210 ------- 0 0.0 2.0 83 83
r 0.91668 0 1 cbr 210 ------- 0 0.0 2.0 81 81
+ 0.91668 1 2 cbr 210 ------- 0 0.0 2.0 81 81
r 0.91868 1 2 cbr 210 ------- 0 0.0 2.0 69 69
+ 0.92 0 1 cbr 210 ------- 0 0.0 2.0 84 84
- 0.92 0 1 cbr 210 ------- 0 0.0 2.0 84 84
- 0.92048 1 2 cbr 210 ------- 0 0.0 2.0 73 73
r 0.92168 0 1 cbr 210 ------- 0 0.0 2.0 82 82
+ 0.92168 1 2 cbr 210 ------- 0 0.0 2.0 82 82
r 0.92428 1 2 cbr 210 ------- 0 0.0 2.0 70 70
+ 0.925 0 1 cbr 210 ------- 0 0.0 2.0 85 85
- 0.925 0 1 cbr 210 ------- 0 0.0 2.0 85 85
- 0.92608 1 2 cbr 210 ------- 0 0.0 2.0 74 74
r 0.92668 0 1 cbr 210 ------- 0 0.0 2.0 83 83
+ 0.92668 1 2 cbr 210 ------- 0 0.0 2.0 83 83
r 0.92988 1 2 cbr 210 ------- 0 0.0 2.0 71 71
+ 0.93 0 1 cbr 210 ------- 0 0.0 2.0 86 86
- 0.93 0 1 cbr 210 ------- 0 0.0 2.0 86 86
r 0.93168 0 1 cbr 210 ------- 0 0.0 2.0 84 84
+ 0.93168 1 2 cbr 210 ------- 0 0.0 2.0 84 84
- 0.93168 1 2 cbr 210 ------- 0 0.0 2.0 75 75
+ 0.935 0 1 cbr 210 ------- 0 0.0 2.0 87 87
- 0.935 0 1 cbr 210 ------- 0 0.0 2.0 87 87
r 0.93548 1 2 cbr 210 ------- 0 0.0 2.0 72 72
r 0.93668 0 1 cbr 210 ------- 0 0.0 2.0 85 85
+ 0.93668 1 2 cbr 210 ------- 0 0.0 2.0 85 85
- 0.93728 1 2 cbr 210 ------- 0 0.0 2.0 76 76
+ 0.94 0 1 cbr 210 ------- 0 0.0 2.0 88 88
- 0.94 0 1 cbr 210 ------- 0 0.0 2.0 88 88
r 0.94108 1 2 cbr 210 ------- 0 0.0 2.0 73 73
r 0.94168 0 1 cbr 210 ------- 0 0.0 2.0 86 86
+ 0.94168 1 2 cbr 210 ------- 0 0.0 2.0 86 86
- 0.94288 1 2 cbr 210 ------- 0 0.0 2.0 77 77
+ 0.945 0 1 cbr 210 ------- 0 0.0 2.0 89 89
- 0.945 0 1 cbr 210 ------- 0 0.0 2.0 89 89
r 0.94668 0 1 cbr 210 ------- 0 0.0 2.0 87 87
+ 0.94668 1 2 cbr 210 ------- 0 0.0 2.0 87 87
r 0.94668 1 2 cbr 210 ------- 0 0.0 2.0 74 74
- 0.94848 1 2 cbr 210 ------- 0 0.0 2.0 78 78
+ 0.95 0 1 cbr 210 ------- 0 0.0 2.0 90 90
- 0.95 0 1 cbr 210 ------- 0 0.0 2.0 90 90
r 0.95168 0 1 cbr 210 ------- 0 0.0 2.0 88 88
+ 0.95168 1 2 cbr 210 ------- 0 0.0 2.0 88 88
r 0.95228 1 2 cbr 210 ------- 0 0.0 2.0 75 75
- 0.95408 1 2 cbr 210 ------- 0 0.0 2.0 79 79
+ 0.955 0 1 cbr 210 ------- 0 0.0 2.0 91 91
- 0.955 0 1 cbr 210 ------- 0 0.0 2.0 91 91
r 0.95668 0 1 cbr 210 ------- 0 0.0 2.0 89 89
+ 0.95668 1 2 cbr 210 ------- 0 0.0 2.0 89 89
r 0.95788 1 2 cbr 210 ------- 0 0.0 2.0 76 76
- 0.95968 1 2 cbr 210 ------- 0 0.0 2.0 80 80
+ 0.96 0 1 cbr 210 ------- 0 0.0 2.0 92 92
- 0.96 0 1 cbr 210 ------- 0 0.0 2.0 92 92
r 0.96168 0 1 cbr 210 ------- 0 0.0 2.0 90 90
+ 0.96168 1 2 cbr 210 ------- 0 0.0 2.0 90 90
r 0.96348 1 2 cbr 210 ------- 0 0.0 2.0 77 77
+ 0.965 0 1 cbr 210 ------- 0 0.0 2.0 93 93
- 0.965 0 1 cbr 210 ------- 0 0.0 2.0 93 93
- 0.96528 1 2 cbr 210 ------- 0 0.0 2.0 81 81
r 0.96668 0 1 cbr 210 ------- 0 0.0 2.0 91 91
+ 0.96668 1 2 cbr 210 ------- 0 0.0 2.0 91 91
r 0.96908 1 2 cbr 210 ------- 0 0.0 2.0 78 78
+ 0.97 0 1 cbr 210 ------- 0 0.0 2.0 94 94
- 0.97 0 1 cbr 210 ------- 0 0.0 2.0 94 94
- 0.97088 1 2 cbr 210 ------- 0 0.0 2.0 82 82
r 0.97168 0 1 cbr 210 ------- 0 0.0 2.0 92 92
+ 0.97168 1 2 cbr 210 ------- 0 0.0 2.0 92 92
r 0.97468 1 2 cbr 210 ------- 0 0.0 2.0 79 79
+ 0.975 0 1 cbr 210 ------- 0 0.0 2.0 95 95
- 0.975 0 1 cbr 210 ------- 0 0.0 2.0 95 95
- 0.97648 1 2 cbr 210 ------- 0 0.0 2.0 83 83
r 0.97668 0 1 cbr 210 ------- 0 0.0 2.0 93 93
+ 0.97668 1 2 cbr 210 ------- 0 0.0 2.0 93 93
+ 0.98 0 1 cbr 210 ------- 0 0.0 2.0 96 96
- 0.98 0 1 cbr 210 ------- 0 0.0 2.0 96 96
r 0.98028 1 2 cbr 210 ------- 0 0.0 2.0 80 80
r 0.98168 0 1 cbr 210 ------- 0 0.0 2.0 94 94
+ 0.98168 1 2 cbr 210 ------- 0 0.0 2.0 94 94
- 0.98208 1 2 cbr 210 ------- 0 0.0 2.0 84 84
+ 0.985 0 1 cbr 210 ------- 0 0.0 2.0 97 97
- 0.985 0 1 cbr 210 ------- 0 0.0 2.0 97 97
r 0.98588 1 2 cbr 210 ------- 0 0.0 2.0 81 81
r 0.98668 0 1 cbr 210 ------- 0 0.0 2.0 95 95
+ 0.98668 1 2 cbr 210 ------- 0 0.0 2.0 95 95
- 0.98768 1 2 cbr 210 ------- 0 0.0 2.0 85 85
+ 0.99 0 1 cbr 210 ------- 0 0.0 2.0 98 98
- 0.99 0 1 cbr 210 ------- 0 0.0 2.0 98 98
r 0.99148 1 2 cbr 210 ------- 0 0.0 2.0 82 82
r 0.99168 0 1 cbr 210 ------- 0 0.0 2.0 96 96
+ 0.99168 1 2 cbr 210 ------- 0 0.0 2.0 96 96
- 0.99328 1 2 cbr 210 ------- 0 0.0 2.0 86 86
+ 0.995 0 1 cbr 210 ------- 0 0.0 2.0 99 99
- 0.995 0 1 cbr 210 ------- 0 0.0 2.0 99 99
r 0.99668 0 1 cbr 210 ------- 0 0.0 2.0 97 97
+ 0.99668 1 2 cbr 210 ------- 0 0.0 2.0 97 97
r 0.99708 1 2 cbr 210 ------- 0 0.0 2.0 83 83
- 0.99888 1 2 cbr 210 ------- 0 0.0 2.0 87 87
+ 1 0 1 cbr 210 ------- 0 0.0 2.0 100 100
- 1 0 1 cbr 210 ------- 0 0.0 2.0 100 100
r 1.00168 0 1 cbr 210 ------- 0 0.0 2.0 98 98
+ 1.00168 1 2 cbr 210 ------- 0 0.0 2.0 98 98
r 1.00268 1 2 cbr 210 ------- 0 0.0 2.0 84 84
- 1.00448 1 2 cbr 210 ------- 0 0.0 2.0 88 88
+ 1.005 0 1 cbr 210 ------- 0 0.0 2.0 101 101
- 1.005 0 1 cbr 210 ------- 0 0.0 2.0 101 101
r 1.00668 0 1 cbr 210 ------- 0 0.0 2.0 99 99
+ 1.00668 1 2 cbr 210 ------- 0 0.0 2.0 99 99
r 1.00828 1 2 cbr 210 ------- 0 0.0 2.0 85 85
+ 1.01 0 1 cbr 210 ------- 0 0.0 2.0 102 102
- 1.01 0 1 cbr 210 ------- 0 0.0 2.0 102 102
- 1.01008 1 2 cbr 210 ------- 0 0.0 2.0 89 89
r 1.01168 0 1 cbr 210 ------- 0 0.0 2.0 100 100
+ 1.01168 1 2 cbr 210 ------- 0 0.0 2.0 100 100
r 1.01388 1 2 cbr 210 ------- 0 0.0 2.0 86 86
+ 1.015 0 1 cbr 210 ------- 0 0.0 2.0 103 103
- 1.015 0 1 cbr 210 ------- 0 0.0 2.0 103 103
- 1.01568 1 2 cbr 210 ------- 0 0.0 2.0 90 90
r 1.01668 0 1 cbr 210 ------- 0 0.0 2.0 101 101
+ 1.01668 1 2 cbr 210 ------- 0 0.0 2.0 101 101
r 1.01948 1 2 cbr 210 ------- 0 0.0 2.0 87 87
+ 1.02 0 1 cbr 210 ------- 0 0.0 2.0 104 104
- 1.02 0 1 cbr 210 ------- 0 0.0 2.0 104 104
- 1.02128 1 2 cbr 210 ------- 0 0.0 2.0 91 91
r 1.02168 0 1 cbr 210 ------- 0 0.0 2.0 102 102
+ 1.02168 1 2 cbr 210 ------- 0 0.0 2.0 102 102
+ 1.025 0 1 cbr 210 ------- 0 0.0 2.0 105 105
- 1.025 0 1 cbr 210 ------- 0 0.0 2.0 105 105
r 1.02508 1 2 cbr 210 ------- 0 0.0 2.0 88 88
r 1.02668 0 1 cbr 210 ------- 0 0.0 2.0 103 103
+ 1.02668 1 2 cbr 210 ------- 0 0.0 2.0 103 103
- 1.02688 1 2 cbr 210 ------- 0 0.0 2.0 92 92
+ 1.03 0 1 cbr 210 ------- 0 0.0 2.0 106 106
- 1.03 0 1 cbr 210 ------- 0 0.0 2.0 106 106
r 1.03068 1 2 cbr 210 ------- 0 0.0 2.0 89 89
r 1.03168 0 1 cbr 210 ------- 0 0.0 2.0 104 104
+ 1.03168 1 2 cbr 210 ------- 0 0.0 2.0 104 104
- 1.03248 1 2 cbr 210 ------- 0 0.0 2.0 93 93
+ 1.035 0 1 cbr 210 ------- 0 0.0 2.0 107 107
- 1.035 0 1 cbr 210 ------- 0 0.0 2.0 107 107
r 1.03628 1 2 cbr 210 ------- 0 0.0 2.0 90 90
r 1.03668 0 1 cbr 210 ------- 0 0.0 2.0 105 105
+ 1.03668 1 2 cbr 210 ------- 0 0.0 2.0 105 105
- 1.03808 1 2 cbr 210 ------- 0 0.0 2.0 94 94
+ 1.04 0 1 cbr 210 ------- 0 0.0 2.0 108 108
- 1.04 0 1 cbr 210 ------- 0 0.0 2.0 108 108
r 1.04168 0 1 cbr 210 ------- 0 0.0 2.0 106 106
+ 1.04168 1 2 cbr 210 ------- 0 0.0 2.0 106 106
r 1.04188 1 2 cbr 210 ------- 0 0.0 2.0 91 91
- 1.04368 1 2 cbr 210 ------- 0 0.0 2.0 95 95
+ 1.045 0 1 cbr 210 ------- 0 0.0 2.0 109 109
- 1.045 0 1 cbr 210 ------- 0 0.0 2.0 109 109
r 1.04668 0 1 cbr 210 ------- 0 0.0 2.0 107 107
+ 1.04668 1 2 cbr 210 ------- 0 0.0 2.0 107 107
r 1.04748 1 2 cbr 210 ------- 0 0.0 2.0 92 92
- 1.04928 1 2 cbr 210 ------- 0 0.0 2.0 96 96
+ 1.05 0 1 cbr 210 ------- 0 0.0 2.0 110 110
- 1.05 0 1 cbr 210 ------- 0 0.0 2.0 110 110
r 1.05168 0 1 cbr 210 ------- 0 0.0 2.0 108 108
+ 1.05168 1 2 cbr 210 ------- 0 0.0 2.0 108 108
r 1.05308 1 2 cbr 210 ------- 0 0.0 2.0 93 93
- 1.05488 1 2 cbr 210 ------- 0 0.0 2.0 97 97
+ 1.055 0 1 cbr 210 ------- 0 0.0 2.0 111 111
- 1.055 0 1 cbr 210 ------- 0 0.0 2.0 111 111
r 1.05668 0 1 cbr 210 ------- 0 0.0 2.0 109 109
+ 1.05668 1 2 cbr 210 ------- 0 0.0 2.0 109 109
r 1.05868 1 2 cbr 210 ------- 0 0.0 2.0 94 94
+ 1.06 0 1 cbr 210 ------- 0 0.0 2.0 112 112
- 1.06 0 1 cbr 210 ------- 0 0.0 2.0 112 112
- 1.06048 1 2 cbr 210 ------- 0 0.0 2.0 98 98
r 1.06168 0 1 cbr 210 ------- 0 0.0 2.0 110 110
+ 1.06168 1 2 cbr 210 ------- 0 0.0 2.0 110 110
r 1.06428 1 2 cbr 210 ------- 0 0.0 2.0 95 95
+ 1.065 0 1 cbr 210 ------- 0 0.0 2.0 113 113
- 1.065 0 1 cbr 210 ------- 0 0.0 2.0 113 113
- 1.06608 1 2 cbr 210 ------- 0 0.0 2.0 99 99
r 1.06668 0 1 cbr 210 ------- 0 0.0 2.0 111 111
+ 1.06668 1 2 cbr 210 ------- 0 0.0 2.0 111 111
r 1.06988 1 2 cbr 210 ------- 0 0.0 2.0 96 96
+ 1.07 0 1 cbr 210 ------- 0 0.0 2.0 114 114
- 1.07 0 1 cbr 210 ------- 0 0.0 2.0 114 114
r 1.07168 0 1 cbr 210 ------- 0 0.0 2.0 112 112
+ 1.07168 1 2 cbr 210 ------- 0 0.0 2.0 112 112
- 1.07168 1 2 cbr 210 ------- 0 0.0 2.0 100 100
+ 1.075 0 1 cbr 210 ------- 0 0.0 2.0 115 115
- 1.075 0 1 cbr 210 ------- 0 0.0 2.0 115 115
r 1.07548 1 2 cbr 210 ------- 0 0.0 2.0 97 97
r 1.07668 0 1 cbr 210 ------- 0 0.0 2.0 113 113
+ 1.07668 1 2 cbr 210 ------- 0 0.0 2.0 113 113
- 1.07728 1 2 cbr 210 ------- 0 0.0 2.0 101 101
+ 1.08 0 1 cbr 210 ------- 0 0.0 2.0 116 116
- 1.08 0 1 cbr 210 ------- 0 0.0 2.0 116 116
r 1.08108 1 2 cbr 210 ------- 0 0.0 2.0 98 98
r 1.08168 0 1 cbr 210 ------- 0 0.0 2.0 114 114
+ 1.08168 1 2 cbr 210 ------- 0 0.0 2.0 114 114