+ 0.5 1 2 cbr 210 ------- 2 1.0 3.1 0 0
- 0.5 1 2 cbr 210 ------- 2 1.0 3.1 0 0
+ 0.505 1 2 cbr 210 ------- 2 1.0 3.1 1 1
- 0.505 1 2 cbr 210 ------- 2 1.0 3.1 1 1
+ 0.51 1 2 cbr 210 ------- 2 1.0 3.1 2 2
- 0.51 1 2 cbr 210 ------- 2 1.0 3.1 2 2
+ 0.515 1 2 cbr 210 ------- 2 1.0 3.1 3 3
- 0.515 1 2 cbr 210 ------- 2 1.0 3.1 3 3
r 0.51584 1 2 cbr 210 ------- 2 1.0 3.1 0 0
+ 0.51584 2 3 cbr 210 ------- 2 1.0 3.1 0 0
- 0.51584 2 3 cbr 210 ------- 2 1.0 3.1 0 0
+ 0.52 1 2 cbr 210 ------- 2 1.0 3.1 4 4
- 0.52 1 2 cbr 210 ------- 2 1.0 3.1 4 4
r 0.52084 1 2 cbr 210 ------- 2 1.0 3.1 1 1
+ 0.52084 2 3 cbr 210 ------- 2 1.0 3.1 1 1
- 0.52084 2 3 cbr 210 ------- 2 1.0 3.1 1 1
+ 0.525 1 2 cbr 210 ------- 2 1.0 3.1 5 5
- 0.525 1 2 cbr 210 ------- 2 1.0 3.1 5 5
r 0.52584 1 2 cbr 210 ------- 2 1.0 3.1 2 2
+ 0.52584 2 3 cbr 210 ------- 2 1.0 3.1 2 2
- 0.52584 2 3 cbr 210 ------- 2 1.0 3.1 2 2
+ 0.53 1 2 cbr 210 ------- 2 1.0 3.1 6 6
- 0.53 1 2 cbr 210 ------- 2 1.0 3.1 6 6
r 0.53084 1 2 cbr 210 ------- 2 1.0 3.1 3 3
+ 0.53084 2 3 cbr 210 ------- 2 1.0 3.1 3 3
- 0.53084 2 3 cbr 210 ------- 2 1.0 3.1 3 3
+ 0.535 1 2 cbr 210 ------- 2 1.0 3.1 7 7
- 0.535 1 2 cbr 210 ------- 2 1.0 3.1 7 7
r 0.53584 1 2 cbr 210 ------- 2 1.0 3.1 4 4
+ 0.53584 2 3 cbr 210 ------- 2 1.0 3.1 4 4
- 0.53584 2 3 cbr 210 ------- 2 1.0 3.1 4 4
r 0.53752 2 3 cbr 210 ------- 2 1.0 3.1 0 0
+ 0.54 1 2 cbr 210 ------- 2 1.0 3.1 8 8
- 0.54 1 2 cbr 210 ------- 2 1.0 3.1 8 8
r 0.54084 1 2 cbr 210 ------- 2 1.0 3.1 5 5
+ 0.54084 2 3 cbr 210 ------- 2 1.0 3.1 5 5
- 0.54084 2 3 cbr 210 ------- 2 1.0 3.1 5 5
r 0.54252 2 3 cbr 210 ------- 2 1.0 3.1 1 1
+ 0.545 1 2 cbr 210 ------- 2 1.0 3.1 9 9
- 0.545 1 2 cbr 210 ------- 2 1.0 3.1 9 9
r 0.54584 1 2 cbr 210 ------- 2 1.0 3.1 6 6
+ 0.54584 2 3 cbr 210 ------- 2 1.0 3.1 6 6
- 0.54584 2 3 cbr 210 ------- 2 1.0 3.1 6 6
r 0.54752 2 3 cbr 210 ------- 2 1.0 3.1 2 2
+ 0.55 1 2 cbr 210 ------- 2 1.0 3.1 10 10
- 0.55 1 2 cbr 210 ------- 2 1.0 3.1 10 10
r 0.55084 1 2 cbr 210 ------- 2 1.0 3.1 7 7
+ 0.55084 2 3 cbr 210 ------- 2 1.0 3.1 7 7
- 0.55084 2 3 cbr 210 ------- 2 1.0 3.1 7 7
r 0.55252 2 3 cbr 210 ------- 2 1.0 3.1 3 3
+ 0.555 1 2 cbr 210 ------- 2 1.0 3.1 11 11
- 0.555 1 2 cbr 210 ------- 2 1.0 3.1 11 11
r 0.55584 1 2 cbr 210 ------- 2 1.0 3.1 8 8
+ 0.55584 2 3 cbr 210 ------- 2 1.0 3.1 8 8
- 0.55584 2 3 cbr 210 ------- 2 1.0 3.1 8 8
r 0.55752 2 3 cbr 210 ------- 2 1.0 3.1 4 4
+ 0.56 1 2 cbr 210 ------- 2 1.0 3.1 12 12
- 0.56 1 2 cbr 210 ------- 2 1.0 3.1 12 12
r 0.56084 1 2 cbr 210 ------- 2 1.0 3.1 9 9
+ 0.56084 2 3 cbr 210 ------- 2 1.0 3.1 9 9
- 0.56084 2 3 cbr 210 ------- 2 1.0 3.1 9 9
r 0.56252 2 3 cbr 210 ------- 2 1.0 3.1 5 5
+ 0.565 1 2 cbr 210 ------- 2 1.0 3.1 13 13
- 0.565 1 2 cbr 210 ------- 2 1.0 3.1 13 13
r 0.56584 1 2 cbr 210 ------- 2 1.0 3.1 10 10
+ 0.56584 2 3 cbr 210 ------- 2 1.0 3.1 10 10
- 0.56584 2 3 cbr 210 ------- 2 1.0 3.1 10 10
r 0.56752 2 3 cbr 210 ------- 2 1.0 3.1 6 6
+ 0.57 1 2 cbr 210 ------- 2 1.0 3.1 14 14
- 0.57 1 2 cbr 210 ------- 2 1.0 3.1 14 14
r 0.57084 1 2 cbr 210 ------- 2 1.0 3.1 11 11
+ 0.57084 2 3 cbr 210 ------- 2 1.0 3.1 11 11
- 0.57084 2 3 cbr 210 ------- 2 1.0 3.1 11 11
r 0.57252 2 3 cbr 210 ------- 2 1.0 3.1 7 7
+ 0.575 1 2 cbr 210 ------- 2 1.0 3.1 15 15
- 0.575 1 2 cbr 210 ------- 2 1.0 3.1 15 15
r 0.57584 1 2 cbr 210 ------- 2 1.0 3.1 12 12
+ 0.57584 2 3 cbr 210 ------- 2 1.0 3.1 12 12
- 0.57584 2 3 cbr 210 ------- 2 1.0 3.1 12 12
r 0.57752 2 3 cbr 210 ------- 2 1.0 3.1 8 8
+ 0.58 1 2 cbr 210 ------- 2 1.0 3.1 16 16
- 0.58 1 2 cbr 210 ------- 2 1.0 3.1 16 16
r 0.58084 1 2 cbr 210 ------- 2 1.0 3.1 13 13
+ 0.58084 2 3 cbr 210 ------- 2 1.0 3.1 13 13
- 0.58084 2 3 cbr 210 ------- 2 1.0 3.1 13 13
r 0.58252 2 3 cbr 210 ------- 2 1.0 3.1 9 9
+ 0.585 1 2 cbr 210 ------- 2 1.0 3.1 17 17
- 0.585 1 2 cbr 210 ------- 2 1.0 3.1 17 17
r 0.58584 1 2 cbr 210 ------- 2 1.0 3.1 14 14
+ 0.58584 2 3 cbr 210 ------- 2 1.0 3.1 14 14
- 0.58584 2 3 cbr 210 ------- 2 1.0 3.1 14 14
r 0.58752 2 3 cbr 210 ------- 2 1.0 3.1 10 10
+ 0.59 1 2 cbr 210 ------- 2 1.0 3.1 18 18
- 0.59 1 2 cbr 210 ------- 2 1.0 3.1 18 18
r 0.59084 1 2 cbr 210 ------- 2 1.0 3.1 15 15
+ 0.59084 2 3 cbr 210 ------- 2 1.0 3.1 15 15
- 0.59084 2 3 cbr 210 ------- 2 1.0 3.1 15 15
r 0.59252 2 3 cbr 210 ------- 2 1.0 3.1 11 11
+ 0.595 1 2 cbr 210 ------- 2 1.0 3.1 19 19
- 0.595 1 2 cbr 210 ------- 2 1.0 3.1 19 19
r 0.59584 1 2 cbr 210 ------- 2 1.0 3.1 16 16
+ 0.59584 2 3 cbr 210 ------- 2 1.0 3.1 16 16
- 0.59584 2 3 cbr 210 ------- 2 1.0 3.1 16 16
r 0.59752 2 3 cbr 210 ------- 2 1.0 3.1 12 12
+ 0.6 1 2 cbr 210 ------- 2 1.0 3.1 20 20
- 0.6 1 2 cbr 210 ------- 2 1.0 3.1 20 20
r 0.60084 1 2 cbr 210 ------- 2 1.0 3.1 17 17
+ 0.60084 2 3 cbr 210 ------- 2 1.0 3.1 17 17
- 0.60084 2 3 cbr 210 ------- 2 1.0 3.1 17 17
r 0.60252 2 3 cbr 210 ------- 2 1.0 3.1 13 13
+ 0.605 1 2 cbr 210 ------- 2 1.0 3.1 21 21
- 0.605 1 2 cbr 210 ------- 2 1.0 3.1 21 21
r 0.60584 1 2 cbr 210 ------- 2 1.0 3.1 18 18
+ 0.60584 2 3 cbr 210 ------- 2 1.0 3.1 18 18
- 0.60584 2 3 cbr 210 ------- 2 1.0 3.1 18 18
r 0.60752 2 3 cbr 210 ------- 2 1.0 3.1 14 14
+ 0.61 1 2 cbr 210 ------- 2 1.0 3.1 22 22
- 0.61 1 2 cbr 210 ------- 2 1.0 3.1 22 22
r 0.61084 1 2 cbr 210 ------- 2 1.0 3.1 19 19
+ 0.61084 2 3 cbr 210 ------- 2 1.0 3.1 19 19
- 0.61084 2 3 cbr 210 ------- 2 1.0 3.1 19 19
r 0.61252 2 3 cbr 210 ------- 2 1.0 3.1 15 15
+ 0.615 1 2 cbr 210 ------- 2 1.0 3.1 23 23
- 0.615 1 2 cbr 210 ------- 2 1.0 3.1 23 23
r 0.61584 1 2 cbr 210 ------- 2 1.0 3.1 20 20
+ 0.61584 2 3 cbr 210 ------- 2 1.0 3.1 20 20
- 0.61584 2 3 cbr 210 ------- 2 1.0 3.1 20 20
r 0.61752 2 3 cbr 210 ------- 2 1.0 3.1 16 16
+ 0.62 1 2 cbr 210 ------- 2 1.0 3.1 24 24
- 0.62 1 2 cbr 210 ------- 2 1.0 3.1 24 24
r 0.62084 1 2 cbr 210 ------- 2 1.0 3.1 21 21
+ 0.62084 2 3 cbr 210 ------- 2 1.0 3.1 21 21
- 0.62084 2 3 cbr 210 ------- 2 1.0 3.1 21 21
r 0.62252 2 3 cbr 210 ------- 2 1.0 3.1 17 17
+ 0.625 1 2 cbr 210 ------- 2 1.0 3.1 25 25
- 0.625 1 2 cbr 210 ------- 2 1.0 3.1 25 25
r 0.62584 1 2 cbr 210 ------- 2 1.0 3.1 22 22
+ 0.62584 2 3 cbr 210 ------- 2 1.0 3.1 22 22
- 0.62584 2 3 cbr 210 ------- 2 1.0 3.1 22 22
r 0.62752 2 3 cbr 210 ------- 2 1.0 3.1 18 18
+ 0.63 1 2 cbr 210 ------- 2 1.0 3.1 26 26
- 0.63 1 2 cbr 210 ------- 2 1.0 3.1 26 26
r 0.63084 1 2 cbr 210 ------- 2 1.0 3.1 23 23
+ 0.63084 2 3 cbr 210 ------- 2 1.0 3.1 23 23
- 0.63084 2 3 cbr 210 ------- 2 1.0 3.1 23 23
r 0.63252 2 3 cbr 210 ------- 2 1.0 3.1 19 19
+ 0.635 1 2 cbr 210 ------- 2 1.0 3.1 27 27
- 0.635 1 2 cbr 210 ------- 2 1.0 3.1 27 27
r 0.63584 1 2 cbr 210 ------- 2 1.0 3.1 24 24
+ 0.63584 2 3 cbr 210 ------- 2 1.0 3.1 24 24
- 0.63584 2 3 cbr 210 ------- 2 1.0 3.1 24 24
r 0.63752 2 3 cbr 210 ------- 2 1.0 3.1 20 20
+ 0.64 1 2 cbr 210 ------- 2 1.0 3.1 28 28
- 0.64 1 2 cbr 210 ------- 2 1.0 3.1 28 28
r 0.64084 1 2 cbr 210 ------- 2 1.0 3.1 25 25
+ 0.64084 2 3 cbr 210 ------- 2 1.0 3.1 25 25
- 0.64084 2 3 cbr 210 ------- 2 1.0 3.1 25 25
r 0.64252 2 3 cbr 210 ------- 2 1.0 3.1 21 21
+ 0.645 1 2 cbr 210 ------- 2 1.0 3.1 29 29
- 0.645 1 2 cbr 210 ------- 2 1.0 3.1 29 29
r 0.64584 1 2 cbr 210 ------- 2 1.0 3.1 26 26
+ 0.64584 2 3 cbr 210 ------- 2 1.0 3.1 26 26
- 0.64584 2 3 cbr 210 ------- 2 1.0 3.1 26 26
r 0.64752 2 3 cbr 210 ------- 2 1.0 3.1 22 22
+ 0.65 1 2 cbr 210 ------- 2 1.0 3.1 30 30
- 0.65 1 2 cbr 210 ------- 2 1.0 3.1 30 30
r 0.65084 1 2 cbr 210 ------- 2 1.0 3.1 27 27
+ 0.65084 2 3 cbr 210 ------- 2 1.0 3.1 27 27
- 0.65084 2 3 cbr 210 ------- 2 1.0 3.1 27 27
r 0.65252 2 3 cbr 210 ------- 2 1.0 3.1 23 23
+ 0.655 1 2 cbr 210 ------- 2 1.0 3.1 31 31
- 0.655 1 2 cbr 210 ------- 2 1.0 3.1 31 31
r 0.65584 1 2 cbr 210 ------- 2 1.0 3.1 28 28
+ 0.65584 2 3 cbr 210 ------- 2 1.0 3.1 28 28
- 0.65584 2 3 cbr 210 ------- 2 1.0 3.1 28 28
r 0.65752 2 3 cbr 210 ------- 2 1.0 3.1 24 24
+ 0.66 1 2 cbr 210 ------- 2 1.0 3.1 32 32
- 0.66 1 2 cbr 210 ------- 2 1.0 3.1 32 32
r 0.66084 1 2 cbr 210 ------- 2 1.0 3.1 29 29
+ 0.66084 2 3 cbr 210 ------- 2 1.0 3.1 29 29
- 0.66084 2 3 cbr 210 ------- 2 1.0 3.1 29 29
r 0.66252 2 3 cbr 210 ------- 2 1.0 3.1 25 25
+ 0.665 1 2 cbr 210 ------- 2 1.0 3.1 33 33
- 0.665 1 2 cbr 210 ------- 2 1.0 3.1 33 33
r 0.66584 1 2 cbr 210 ------- 2 1.0 3.1 30 30
+ 0.66584 2 3 cbr 210 ------- 2 1.0 3.1 30 30
- 0.66584 2 3 cbr 210 ------- 2 1.0 3.1 30 30
r 0.66752 2 3 cbr 210 ------- 2 1.0 3.1 26 26
+ 0.67 1 2 cbr 210 ------- 2 1.0 3.1 34 34
- 0.67 1 2 cbr 210 ------- 2 1.0 3.1 34 34
r 0.67084 1 2 cbr 210 ------- 2 1.0 3.1 31 31
+ 0.67084 2 3 cbr 210 ------- 2 1.0 3.1 31 31
- 0.67084 2 3 cbr 210 ------- 2 1.0 3.1 31 31
r 0.67252 2 3 cbr 210 ------- 2 1.0 3.1 27 27
+ 0.675 1 2 cbr 210 ------- 2 1.0 3.1 35 35
- 0.675 1 2 cbr 210 ------- 2 1.0 3.1 35 35
r 0.67584 1 2 cbr 210 ------- 2 1.0 3.1 32 32
+ 0.67584 2 3 cbr 210 ------- 2 1.0 3.1 32 32
- 0.67584 2 3 cbr 210 ------- 2 1.0 3.1 32 32
r 0.67752 2 3 cbr 210 ------- 2 1.0 3.1 28 28
+ 0.68 1 2 cbr 210 ------- 2 1.0 3.1 36 36
- 0.68 1 2 cbr 210 ------- 2 1.0 3.1 36 36
r 0.68084 1 2 cbr 210 ------- 2 1.0 3.1 33 33
+ 0.68084 2 3 cbr 210 ------- 2 1.0 3.1 33 33
- 0.68084 2 3 cbr 210 ------- 2 1.0 3.1 33 33
r 0.68252 2 3 cbr 210 ------- 2 1.0 3.1 29 29
+ 0.685 1 2 cbr 210 ------- 2 1.0 3.1 37 37
- 0.685 1 2 cbr 210 ------- 2 1.0 3.1 37 37
r 0.68584 1 2 cbr 210 ------- 2 1.0 3.1 34 34
+ 0.68584 2 3 cbr 210 ------- 2 1.0 3.1 34 34
- 0.68584 2 3 cbr 210 ------- 2 1.0 3.1 34 34
r 0.68752 2 3 cbr 210 ------- 2 1.0 3.1 30 30
+ 0.69 1 2 cbr 210 ------- 2 1.0 3.1 38 38
- 0.69 1 2 cbr 210 ------- 2 1.0 3.1 38 38
r 0.69084 1 2 cbr 210 ------- 2 1.0 3.1 35 35
+ 0.69084 2 3 cbr 210 ------- 2 1.0 3.1 35 35
- 0.69084 2 3 cbr 210 ------- 2 1.0 3.1 35 35
r 0.69252 2 3 cbr 210 ------- 2 1.0 3.1 31 31
+ 0.695 1 2 cbr 210 ------- 2 1.0 3.1 39 39
- 0.695 1 2 cbr 210 ------- 2 1.0 3.1 39 39
r 0.69584 1 2 cbr 210 ------- 2 1.0 3.1 36 36
+ 0.69584 2 3 cbr 210 ------- 2 1.0 3.1 36 36
- 0.69584 2 3 cbr 210 ------- 2 1.0 3.1 36 36
r 0.69752 2 3 cbr 210 ------- 2 1.0 3.1 32 32
+ 0.7 1 2 cbr 210 ------- 2 1.0 3.1 40 40
- 0.7 1 2 cbr 210 ------- 2 1.0 3.1 40 40
r 0.70084 1 2 cbr 210 ------- 2 1.0 3.1 37 37
+ 0.70084 2 3 cbr 210 ------- 2 1.0 3.1 37 37
- 0.70084 2 3 cbr 210 ------- 2 1.0 3.1 37 37
r 0.70252 2 3 cbr 210 ------- 2 1.0 3.1 33 33
+ 0.705 1 2 cbr 210 ------- 2 1.0 3.1 41 41
- 0.705 1 2 cbr 210 ------- 2 1.0 3.1 41 41
r 0.70584 1 2 cbr 210 ------- 2 1.0 3.1 38 38
+ 0.70584 2 3 cbr 210 ------- 2 1.0 3.1 38 38
- 0.70584 2 3 cbr 210 ------- 2 1.0 3.1 38 38
r 0.70752 2 3 cbr 210 ------- 2 1.0 3.1 34 34
+ 0.71 1 2 cbr 210 ------- 2 1.0 3.1 42 42
- 0.71 1 2 cbr 210 ------- 2 1.0 3.1 42 42
r 0.71084 1 2 cbr 210 ------- 2 1.0 3.1 39 39
+ 0.71084 2 3 cbr 210 ------- 2 1.0 3.1 39 39
- 0.71084 2 3 cbr 210 ------- 2 1.0 3.1 39 39
r 0.71252 2 3 cbr 210 ------- 2 1.0 3.1 35 35
+ 0.715 1 2 cbr 210 ------- 2 1.0 3.1 43 43
- 0.715 1 2 cbr 210 ------- 2 1.0 3.1 43 43
r 0.71584 1 2 cbr 210 ------- 2 1.0 3.1 40 40
+ 0.71584 2 3 cbr 210 ------- 2 1.0 3.1 40 40
- 0.71584 2 3 cbr 210 ------- 2 1.0 3.1 40 40
r 0.71752 2 3 cbr 210 ------- 2 1.0 3.1 36 36
+ 0.72 1 2 cbr 210 ------- 2 1.0 3.1 44 44
- 0.72 1 2 cbr 210 ------- 2 1.0 3.1 44 44
r 0.72084 1 2 cbr 210 ------- 2 1.0 3.1 41 41
+ 0.72084 2 3 cbr 210 ------- 2 1.0 3.1 41 41
- 0.72084 2 3 cbr 210 ------- 2 1.0 3.1 41 41
r 0.72252 2 3 cbr 210 ------- 2 1.0 3.1 37 37
+ 0.725 1 2 cbr 210 ------- 2 1.0 3.1 45 45
- 0.725 1 2 cbr 210 ------- 2 1.0 3.1 45 45
r 0.72584 1 2 cbr 210 ------- 2 1.0 3.1 42 42
+ 0.72584 2 3 cbr 210 ------- 2 1.0 3.1 42 42
- 0.72584 2 3 cbr 210 ------- 2 1.0 3.1 42 42
r 0.72752 2 3 cbr 210 ------- 2 1.0 3.1 38 38
+ 0.73 1 2 cbr 210 ------- 2 1.0 3.1 46 46
- 0.73 1 2 cbr 210 ------- 2 1.0 3.1 46 46
r 0.73084 1 2 cbr 210 ------- 2 1.0 3.1 43 43
+ 0.73084 2 3 cbr 210 ------- 2 1.0 3.1 43 43
- 0.73084 2 3 cbr 210 ------- 2 1.0 3.1 43 43
r 0.73252 2 3 cbr 210 ------- 2 1.0 3.1 39 39
+ 0.735 1 2 cbr 210 ------- 2 1.0 3.1 47 47
- 0.735 1 2 cbr 210 ------- 2 1.0 3.1 47 47
r 0.73584 1 2 cbr 210 ------- 2 1.0 3.1 44 44
+ 0.73584 2 3 cbr 210 ------- 2 1.0 3.1 44 44
- 0.73584 2 3 cbr 210 ------- 2 1.0 3.1 44 44
r 0.73752 2 3 cbr 210 ------- 2 1.0 3.1 40 40
+ 0.74 1 2 cbr 210 ------- 2 1.0 3.1 48 48
- 0.74 1 2 cbr 210 ------- 2 1.0 3.1 48 48
r 0.74084 1 2 cbr 210 ------- 2 1.0 3.1 45 45
+ 0.74084 2 3 cbr 210 ------- 2 1.0 3.1 45 45
- 0.74084 2 3 cbr 210 ------- 2 1.0 3.1 45 45
r 0.74252 2 3 cbr 210 ------- 2 1.0 3.1 41 41
+ 0.745 1 2 cbr 210 ------- 2 1.0 3.1 49 49
- 0.745 1 2 cbr 210 ------- 2 1.0 3.1 49 49
r 0.74584 1 2 cbr 210 ------- 2 1.0 3.1 46 46
+ 0.74584 2 3 cbr 210 ------- 2 1.0 3.1 46 46
- 0.74584 2 3 cbr 210 ------- 2 1.0 3.1 46 46
r 0.74752 2 3 cbr 210 ------- 2 1.0 3.1 42 42
+ 0.75 1 2 cbr 210 ------- 2 1.0 3.1 50 50
- 0.75 1 2 cbr 210 ------- 2 1.0 3.1 50 50
r 0.75084 1 2 cbr 210 ------- 2 1.0 3.1 47 47
+ 0.75084 2 3 cbr 210 ------- 2 1.0 3.1 47 47
- 0.75084 2 3 cbr 210 ------- 2 1.0 3.1 47 47
r 0.75252 2 3 cbr 210 ------- 2 1.0 3.1 43 43
+ 0.755 1 2 cbr 210 ------- 2 1.0 3.1 51 51
- 0.755 1 2 cbr 210 ------- 2 1.0 3.1 51 51
r 0.75584 1 2 cbr 210 ------- 2 1.0 3.1 48 48
+ 0.75584 2 3 cbr 210 ------- 2 1.0 3.1 48 48
- 0.75584 2 3 cbr 210 ------- 2 1.0 3.1 48 48
r 0.75752 2 3 cbr 210 ------- 2 1.0 3.1 44 44
+ 0.76 1 2 cbr 210 ------- 2 1.0 3.1 52 52
- 0.76 1 2 cbr 210 ------- 2 1.0 3.1 52 52
r 0.76084 1 2 cbr 210 ------- 2 1.0 3.1 49 49
+ 0.76084 2 3 cbr 210 ------- 2 1.0 3.1 49 49
- 0.76084 2 3 cbr 210 ------- 2 1.0 3.1 49 49
r 0.76252 2 3 cbr 210 ------- 2 1.0 3.1 45 45
+ 0.765 1 2 cbr 210 ------- 2 1.0 3.1 53 53
- 0.765 1 2 cbr 210 ------- 2 1.0 3.1 53 53
r 0.76584 1 2 cbr 210 ------- 2 1.0 3.1 50 50
+ 0.76584 2 3 cbr 210 ------- 2 1.0 3.1 50 50
- 0.76584 2 3 cbr 210 ------- 2 1.0 3.1 50 50
r 0.76752 2 3 cbr 210 ------- 2 1.0 3.1 46 46
+ 0.77 1 2 cbr 210 ------- 2 1.0 3.1 54 54
- 0.77 1 2 cbr 210 ------- 2 1.0 3.1 54 54
r 0.77084 1 2 cbr 210 ------- 2 1.0 3.1 51 51
+ 0.77084 2 3 cbr 210 ------- 2 1.0 3.1 51 51
- 0.77084 2 3 cbr 210 ------- 2 1.0 3.1 51 51
r 0.77252 2 3 cbr 210 ------- 2 1.0 3.1 47 47
+ 0.775 1 2 cbr 210 ------- 2 1.0 3.1 55 55
- 0.775 1 2 cbr 210 ------- 2 1.0 3.1 55 55
r 0.77584 1 2 cbr 210 ------- 2 1.0 3.1 52 52
+ 0.77584 2 3 cbr 210 ------- 2 1.0 3.1 52 52
- 0.77584 2 3 cbr 210 ------- 2 1.0 3.1 52 52
r 0.77752 2 3 cbr 210 ------- 2 1.0 3.1 48 48
+ 0.78 1 2 cbr 210 ------- 2 1.0 3.1 56 56
- 0.78 1 2 cbr 210 ------- 2 1.0 3.1 56 56
r 0.78084 1 2 cbr 210 ------- 2 1.0 3.1 53 53
+ 0.78084 2 3 cbr 210 ------- 2 1.0 3.1 53 53
- 0.78084 2 3 cbr 210 ------- 2 1.0 3.1 53 53
r 0.78252 2 3 cbr 210 ------- 2 1.0 3.1 49 49
+ 0.785 1 2 cbr 210 ------- 2 1.0 3.1 57 57
- 0.785 1 2 cbr 210 ------- 2 1.0 3.1 57 57
r 0.78584 1 2 cbr 210 ------- 2 1.0 3.1 54 54
+ 0.78584 2 3 cbr 210 ------- 2 1.0 3.1 54 54
- 0.78584 2 3 cbr 210 ------- 2 1.0 3.1 54 54
r 0.78752 2 3 cbr 210 ------- 2 1.0 3.1 50 50
+ 0.79 1 2 cbr 210 ------- 2 1.0 3.1 58 58
- 0.79 1 2 cbr 210 ------- 2 1.0 3.1 58 58
r 0.79084 1 2 cbr 210 ------- 2 1.0 3.1 55 55
+ 0.79084 2 3 cbr 210 ------- 2 1.0 3.1 55 55
- 0.79084 2 3 cbr 210 ------- 2 1.0 3.1 55 55
r 0.79252 2 3 cbr 210 ------- 2 1.0 3.1 51 51
+ 0.795 1 2 cbr 210 ------- 2 1.0 3.1 59 59
- 0.795 1 2 cbr 210 ------- 2 1.0 3.1 59 59
r 0.79584 1 2 cbr 210 ------- 2 1.0 3.1 56 56
+ 0.79584 2 3 cbr 210 ------- 2 1.0 3.1 56 56
- 0.79584 2 3 cbr 210 ------- 2 1.0 3.1 56 56
r 0.79752 2 3 cbr 210 ------- 2 1.0 3.1 52 52
+ 0.8 1 2 cbr 210 ------- 2 1.0 3.1 60 60
- 0.8 1 2 cbr 210 ------- 2 1.0 3.1 60 60
r 0.80084 1 2 cbr 210 ------- 2 1.0 3.1 57 57
+ 0.80084 2 3 cbr 210 ------- 2 1.0 3.1 57 57
- 0.80084 2 3 cbr 210 ------- 2 1.0 3.1 57 57
r 0.80252 2 3 cbr 210 ------- 2 1.0 3.1 53 53
+ 0.805 1 2 cbr 210 ------- 2 1.0 3.1 61 61
- 0.805 1 2 cbr 210 ------- 2 1.0 3.1 61 61
r 0.80584 1 2 cbr 210 ------- 2 1.0 3.1 58 58
+ 0.80584 2 3 cbr 210 ------- 2 1.0 3.1 58 58
- 0.80584 2 3 cbr 210 ------- 2 1.0 3.1 58 58
r 0.80752 2 3 cbr 210 ------- 2 1.0 3.1 54 54
+ 0.81 1 2 cbr 210 ------- 2 1.0 3.1 62 62
- 0.81 1 2 cbr 210 ------- 2 1.0 3.1 62 62
r 0.81084 1 2 cbr 210 ------- 2 1.0 3.1 59 59
+ 0.81084 2 3 cbr 210 ------- 2 1.0 3.1 59 59
- 0.81084 2 3 cbr 210 ------- 2 1.0 3.1 59 59
r 0.81252 2 3 cbr 210 ------- 2 1.0 3.1 55 55
+ 0.815 1 2 cbr 210 ------- 2 1.0 3.1 63 63
- 0.815 1 2 cbr 210 ------- 2 1.0 3.1 63 63
r 0.81584 1 2 cbr 210 ------- 2 1.0 3.1 60 60
+ 0.81584 2 3 cbr 210 ------- 2 1.0 3.1 60 60
- 0.81584 2 3 cbr 210 ------- 2 1.0 3.1 60 60
r 0.81752 2 3 cbr 210 ------- 2 1.0 3.1 56 56
+ 0.82 1 2 cbr 210 ------- 2 1.0 3.1 64 64
- 0.82 1 2 cbr 210 ------- 2 1.0 3.1 64 64
r 0.82084 1 2 cbr 210 ------- 2 1.0 3.1 61 61
+ 0.82084 2 3 cbr 210 ------- 2 1.0 3.1 61 61
- 0.82084 2 3 cbr 210 ------- 2 1.0 3.1 61 61
r 0.82252 2 3 cbr 210 ------- 2 1.0 3.1 57 57
+ 0.825 1 2 cbr 210 ------- 2 1.0 3.1 65 65
- 0.825 1 2 cbr 210 ------- 2 1.0 3.1 65 65
r 0.82584 1 2 cbr 210 ------- 2 1.0 3.1 62 62
+ 0.82584 2 3 cbr 210 ------- 2 1.0 3.1 62 62
- 0.82584 2 3 cbr 210 ------- 2 1.0 3.1 62 62
r 0.82752 2 3 cbr 210 ------- 2 1.0 3.1 58 58
+ 0.83 1 2 cbr 210 ------- 2 1.0 3.1 66 66
- 0.83 1 2 cbr 210 ------- 2 1.0 3.1 66 66
r 0.83084 1 2 cbr 210 ------- 2 1.0 3.1 63 63
+ 0.83084 2 3 cbr 210 ------- 2 1.0 3.1 63 63
- 0.83084 2 3 cbr 210 ------- 2 1.0 3.1 63 63
r 0.83252 2 3 cbr 210 ------- 2 1.0 3.1 59 59
+ 0.835 1 2 cbr 210 ------- 2 1.0 3.1 67 67
- 0.835 1 2 cbr 210 ------- 2 1.0 3.1 67 67
r 0.83584 1 2 cbr 210 ------- 2 1.0 3.1 64 64
+ 0.83584 2 3 cbr 210 ------- 2 1.0 3.1 64 64
- 0.83584 2 3 cbr 210 ------- 2 1.0 3.1 64 64
r 0.83752 2 3 cbr 210 ------- 2 1.0 3.1 60 60
+ 0.84 1 2 cbr 210 ------- 2 1.0 3.1 68 68
- 0.84 1 2 cbr 210 ------- 2 1.0 3.1 68 68
r 0.84084 1 2 cbr 210 ------- 2 1.0 3.1 65 65
+ 0.84084 2 3 cbr 210 ------- 2 1.0 3.1 65 65
- 0.84084 2 3 cbr 210 ------- 2 1.0 3.1 65 65
r 0.84252 2 3 cbr 210 ------- 2 1.0 3.1 61 61
+ 0.845 1 2 cbr 210 ------- 2 1.0 3.1 69 69
- 0.845 1 2 cbr 210 ------- 2 1.0 3.1 69 69
r 0.84584 1 2 cbr 210 ------- 2 1.0 3.1 66 66
+ 0.84584 2 3 cbr 210 ------- 2 1.0 3.1 66 66
- 0.84584 2 3 cbr 210 ------- 2 1.0 3.1 66 66
r 0.84752 2 3 cbr 210 ------- 2 1.0 3.1 62 62
+ 0.85 1 2 cbr 210 ------- 2 1.0 3.1 70 70
- 0.85 1 2 cbr 210 ------- 2 1.0 3.1 70 70
r 0.85084 1 2 cbr 210 ------- 2 1.0 3.1 67 67
+ 0.85084 2 3 cbr 210 ------- 2 1.0 3.1 67 67
- 0.85084 2 3 cbr 210 ------- 2 1.0 3.1 67 67
r 0.85252 2 3 cbr 210 ------- 2 1.0 3.1 63 63
+ 0.855 1 2 cbr 210 ------- 2 1.0 3.1 71 71
- 0.855 1 2 cbr 210 ------- 2 1.0 3.1 71 71
r 0.85584 1 2 cbr 210 ------- 2 1.0 3.1 68 68
+ 0.85584 2 3 cbr 210 ------- 2 1.0 3.1 68 68
- 0.85584 2 3 cbr 210 ------- 2 1.0 3.1 68 68
r 0.85752 2 3 cbr 210 ------- 2 1.0 3.1 64 64
+ 0.86 1 2 cbr 210 ------- 2 1.0 3.1 72 72
- 0.86 1 2 cbr 210 ------- 2 1.0 3.1 72 72
r 0.86084 1 2 cbr 210 ------- 2 1.0 3.1 69 69
+ 0.86084 2 3 cbr 210 ------- 2 1.0 3.1 69 69
- 0.86084 2 3 cbr 210 ------- 2 1.0 3.1 69 69
r 0.86252 2 3 cbr 210 ------- 2 1.0 3.1 65 65
+ 0.865 1 2 cbr 210 ------- 2 1.0 3.1 73 73
- 0.865 1 2 cbr 210 ------- 2 1.0 3.1 73 73
r 0.86584 1 2 cbr 210 ------- 2 1.0 3.1 70 70
+ 0.86584 2 3 cbr 210 ------- 2 1.0 3.1 70 70
- 0.86584 2 3 cbr 210 ------- 2 1.0 3.1 70 70
r 0.86752 2 3 cbr 210 ------- 2 1.0 3.1 66 66
+ 0.87 1 2 cbr 210 ------- 2 1.0 3.1 74 74
- 0.87 1 2 cbr 210 ------- 2 1.0 3.1 74 74
r 0.87084 1 2 cbr 210 ------- 2 1.0 3.1 71 71
+ 0.87084 2 3 cbr 210 ------- 2 1.0 3.1 71 71
- 0.87084 2 3 cbr 210 ------- 2 1.0 3.1 71 71
r 0.87252 2 3 cbr 210 ------- 2 1.0 3.1 67 67
+ 0.875 1 2 cbr 210 ------- 2 1.0 3.1 75 75
- 0.875 1 2 cbr 210 ------- 2 1.0 3.1 75 75
r 0.87584 1 2 cbr 210 ------- 2 1.0 3.1 72 72
+ 0.87584 2 3 cbr 210 ------- 2 1.0 3.1 72 72
- 0.87584 2 3 cbr 210 ------- 2 1.0 3.1 72 72
r 0.87752 2 3 cbr 210 ------- 2 1.0 3.1 68 68
+ 0.88 1 2 cbr 210 ------- 2 1.0 3.1 76 76
- 0.88 1 2 cbr 210 ------- 2 1.0 3.1 76 76
r 0.88084 1 2 cbr 210 ------- 2 1.0 3.1 73 73
+ 0.88084 2 3 cbr 210 ------- 2 1.0 3.1 73 73
- 0.88084 2 3 cbr 210 ------- 2 1.0 3.1 73 73
r 0.88252 2 3 cbr 210 ------- 2 1.0 3.1 69 69
+ 0.885 1 2 cbr 210 ------- 2 1.0 3.1 77 77
- 0.885 1 2 cbr 210 ------- 2 1.0 3.1 77 77
r 0.88584 1 2 cbr 210 ------- 2 1.0 3.1 74 74
+ 0.88584 2 3 cbr 210 ------- 2 1.0 3.1 74 74
- 0.88584 2 3 cbr 210 ------- 2 1.0 3.1 74 74
r 0.88752 2 3 cbr 210 ------- 2 1.0 3.1 70 70
+ 0.89 1 2 cbr 210 ------- 2 1.0 3.1 78 78
- 0.89 1 2 cbr 210 ------- 2 1.0 3.1 78 78
r 0.89084 1 2 cbr 210 ------- 2 1.0 3.1 75 75
+ 0.89084 2 3 cbr 210 ------- 2 1.0 3.1 75 75
- 0.89084 2 3 cbr 210 ------- 2 1.0 3.1 75 75
r 0.89252 2 3 cbr 210 ------- 2 1.0 3.1 71 71
+ 0.895 1 2 cbr 210 ------- 2 1.0 3.1 79 79
- 0.895 1 2 cbr 210 ------- 2 1.0 3.1 79 79
r 0.89584 1 2 cbr 210 ------- 2 1.0 3.1 76 76
+ 0.89584 2 3 cbr 210 ------- 2 1.0 3.1 76 76
- 0.89584 2 3 cbr 210 ------- 2 1.0 3.1 76 76
r 0.89752 2 3 cbr 210 ------- 2 1.0 3.1 72 72
+ 0.9 1 2 cbr 210 ------- 2 1.0 3.1 80 80
- 0.9 1 2 cbr 210 ------- 2 1.0 3.1 80 80
r 0.90084 1 2 cbr 210 ------- 2 1.0 3.1 77 77
+ 0.90084 2 3 cbr 210 ------- 2 1.0 3.1 77 77
- 0.90084 2 3 cbr 210 ------- 2 1.0 3.1 77 77
r 0.90252 2 3 cbr 210 ------- 2 1.0 3.1 73 73
+ 0.905 1 2 cbr 210 ------- 2 1.0 3.1 81 81
- 0.905 1 2 cbr 210 ------- 2 1.0 3.1 81 81
r 0.90584 1 2 cbr 210 ------- 2 1.0 3.1 78 78
+ 0.90584 2 3 cbr 210 ------- 2 1.0 3.1 78 78
- 0.90584 2 3 cbr 210 ------- 2 1.0 3.1 78 78
r 0.90752 2 3 cbr 210 ------- 2 1.0 3.1 74 74
+ 0.91 1 2 cbr 210 ------- 2 1.0 3.1 82 82
- 0.91 1 2 cbr 210 ------- 2 1.0 3.1 82 82
r 0.91084 1 2 cbr 210 ------- 2 1.0 3.1 79 79
+ 0.91084 2 3 cbr 210 ------- 2 1.0 3.1 79 79
- 0.91084 2 3 cbr 210 ------- 2 1.0 3.1 79 79
r 0.91252 2 3 cbr 210 ------- 2 1.0 3.1 75 75
+ 0.915 1 2 cbr 210 ------- 2 1.0 3.1 83 83
- 0.915 1 2 cbr 210 ------- 2 1.0 3.1 83 83
r 0.91584 1 2 cbr 210 ------- 2 1.0 3.1 80 80
+ 0.91584 2 3 cbr 210 ------- 2 1.0 3.1 80 80
- 0.91584 2 3 cbr 210 ------- 2 1.0 3.1 80 80
r 0.91752 2 3 cbr 210 ------- 2 1.0 3.1 76 76
+ 0.92 1 2 cbr 210 ------- 2 1.0 3.1 84 84
- 0.92 1 2 cbr 210 ------- 2 1.0 3.1 84 84
r 0.92084 1 2 cbr 210 ------- 2 1.0 3.1 81 81
+ 0.92084 2 3 cbr 210 ------- 2 1.0 3.1 81 81
- 0.92084 2 3 cbr 210 ------- 2 1.0 3.1 81 81
r 0.92252 2 3 cbr 210 ------- 2 1.0 3.1 77 77
+ 0.925 1 2 cbr 210 ------- 2 1.0 3.1 85 85
- 0.925 1 2 cbr 210 ------- 2 1.0 3.1 85 85
r 0.92584 1 2 cbr 210 ------- 2 1.0 3.1 82 82
+ 0.92584 2 3 cbr 210 ------- 2 1.0 3.1 82 82
- 0.92584 2 3 cbr 210 ------- 2 1.0 3.1 82 82
r 0.92752 2 3 cbr 210 ------- 2 1.0 3.1 78 78
+ 0.93 1 2 cbr 210 ------- 2 1.0 3.1 86 86
- 0.93 1 2 cbr 210 ------- 2 1.0 3.1 86 86
r 0.93084 1 2 cbr 210 ------- 2 1.0 3.1 83 83
+ 0.93084 2 3 cbr 210 ------- 2 1.0 3.1 83 83
- 0.93084 2 3 cbr 210 ------- 2 1.0 3.1 83 83
r 0.93252 2 3 cbr 210 ------- 2 1.0 3.1 79 79
+ 0.935 1 2 cbr 210 ------- 2 1.0 3.1 87 87
- 0.935 1 2 cbr 210 ------- 2 1.0 3.1 87 87
r 0.93584 1 2 cbr 210 ------- 2 1.0 3.1 84 84
+ 0.93584 2 3 cbr 210 ------- 2 1.0 3.1 84 84
- 0.93584 2 3 cbr 210 ------- 2 1.0 3.1 84 84
r 0.93752 2 3 cbr 210 ------- 2 1.0 3.1 80 80
+ 0.94 1 2 cbr 210 ------- 2 1.0 3.1 88 88
- 0.94 1 2 cbr 210 ------- 2 1.0 3.1 88 88
r 0.94084 1 2 cbr 210 ------- 2 1.0 3.1 85 85
+ 0.94084 2 3 cbr 210 ------- 2 1.0 3.1 85 85
- 0.94084 2 3 cbr 210 ------- 2 1.0 3.1 85 85
r 0.94252 2 3 cbr 210 ------- 2 1.0 3.1 81 81
+ 0.945 1 2 cbr 210 ------- 2 1.0 3.1 89 89
- 0.945 1 2 cbr 210 ------- 2 1.0 3.1 89 89
r 0.94584 1 2 cbr 210 ------- 2 1.0 3.1 86 86
+ 0.94584 2 3 cbr 210 ------- 2 1.0 3.1 86 86
- 0.94584 2 3 cbr 210 ------- 2 1.0 3.1 86 86
r 0.94752 2 3 cbr 210 ------- 2 1.0 3.1 82 82
+ 0.95 1 2 cbr 210 ------- 2 1.0 3.1 90 90
- 0.95 1 2 cbr 210 ------- 2 1.0 3.1 90 90
r 0.95084 1 2 cbr 210 ------- 2 1.0 3.1 87 87
+ 0.95084 2 3 cbr 210 ------- 2 1.0 3.1 87 87
- 0.95084 2 3 cbr 210 ------- 2 1.0 3.1 87 87
r 0.95252 2 3 cbr 210 ------- 2 1.0 3.1 83 83
+ 0.955 1 2 cbr 210 ------- 2 1.0 3.1 91 91
- 0.955 1 2 cbr 210 ------- 2 1.0 3.1 91 91
r 0.95584 1 2 cbr 210 ------- 2 1.0 3.1 88 88
+ 0.95584 2 3 cbr 210 ------- 2 1.0 3.1 88 88
- 0.95584 2 3 cbr 210 ------- 2 1.0 3.1 88 88
r 0.95752 2 3 cbr 210 ------- 2 1.0 3.1 84 84
+ 0.96 1 2 cbr 210 ------- 2 1.0 3.1 92 92
- 0.96 1 2 cbr 210 ------- 2 1.0 3.1 92 92
r 0.96084 1 2 cbr 210 ------- 2 1.0 3.1 89 89
+ 0.96084 2 3 cbr 210 ------- 2 1.0 3.1 89 89
- 0.96084 2 3 cbr 210 ------- 2 1.0 3.1 89 89
r 0.96252 2 3 cbr 210 ------- 2 1.0 3.1 85 85
+ 0.965 1 2 cbr 210 ------- 2 1.0 3.1 93 93
- 0.965 1 2 cbr 210 ------- 2 1.0 3.1 93 93
r 0.96584 1 2 cbr 210 ------- 2 1.0 3.1 90 90
+ 0.96584 2 3 cbr 210 ------- 2 1.0 3.1 90 90
- 0.96584 2 3 cbr 210 ------- 2 1.0 3.1 90 90
r 0.96752 2 3 cbr 210 ------- 2 1.0 3.1 86 86
+ 0.97 1 2 cbr 210 ------- 2 1.0 3.1 94 94
- 0.97 1 2 cbr 210 ------- 2 1.0 3.1 94 94
r 0.97084 1 2 cbr 210 ------- 2 1.0 3.1 91 91
+ 0.97084 2 3 cbr 210 ------- 2 1.0 3.1 91 91
- 0.97084 2 3 cbr 210 ------- 2 1.0 3.1 91 91
r 0.97252 2 3 cbr 210 ------- 2 1.0 3.1 87 87
+ 0.975 1 2 cbr 210 ------- 2 1.0 3.1 95 95
- 0.975 1 2 cbr 210 ------- 2 1.0 3.1 95 95
r 0.97584 1 2 cbr 210 ------- 2 1.0 3.1 92 92
+ 0.97584 2 3 cbr 210 ------- 2 1.0 3.1 92 92
- 0.97584 2 3 cbr 210 ------- 2 1.0 3.1 92 92
r 0.97752 2 3 cbr 210 ------- 2 1.0 3.1 88 88
+ 0.98 1 2 cbr 210 ------- 2 1.0 3.1 96 96
- 0.98 1 2 cbr 210 ------- 2 1.0 3.1 96 96
r 0.98084 1 2 cbr 210 ------- 2 1.0 3.1 93 93
+ 0.98084 2 3 cbr 210 ------- 2 1.0 3.1 93 93
- 0.98084 2 3 cbr 210 ------- 2 1.0 3.1 93 93
r 0.98252 2 3 cbr 210 ------- 2 1.0 3.1 89 89
+ 0.985 1 2 cbr 210 ------- 2 1.0 3.1 97 97
- 0.985 1 2 cbr 210 ------- 2 1.0 3.1 97 97
r 0.98584 1 2 cbr 210 ------- 2 1.0 3.1 94 94
+ 0.98584 2 3 cbr 210 ------- 2 1.0 3.1 94 94
- 0.98584 2 3 cbr 210 ------- 2 1.0 3.1 94 94
r 0.98752 2 3 cbr 210 ------- 2 1.0 3.1 90 90
+ 0.99 1 2 cbr 210 ------- 2 1.0 3.1 98 98
- 0.99 1 2 cbr 210 ------- 2 1.0 3.1 98 98
r 0.99084 1 2 cbr 210 ------- 2 1.0 3.1 95 95
+ 0.99084 2 3 cbr 210 ------- 2 1.0 3.1 95 95
- 0.99084 2 3 cbr 210 ------- 2 1.0 3.1 95 95
r 0.99252 2 3 cbr 210 ------- 2 1.0 3.1 91 91
+ 0.995 1 2 cbr 210 ------- 2 1.0 3.1 99 99
- 0.995 1 2 cbr 210 ------- 2 1.0 3.1 99 99
r 0.99584 1 2 cbr 210 ------- 2 1.0 3.1 96 96
+ 0.99584 2 3 cbr 210 ------- 2 1.0 3.1 96 96
- 0.99584 2 3 cbr 210 ------- 2 1.0 3.1 96 96
r 0.99752 2 3 cbr 210 ------- 2 1.0 3.1 92 92
+ 1 0 2 tcp 40 ------- 1 0.0 3.0 0 100
- 1 0 2 tcp 40 ------- 1 0.0 3.0 0 100
+ 1 1 2 cbr 210 ------- 2 1.0 3.1 100 101
- 1 1 2 cbr 210 ------- 2 1.0 3.1 100 101
r 1.00084 1 2 cbr 210 ------- 2 1.0 3.1 97 97
+ 1.00084 2 3 cbr 210 ------- 2 1.0 3.1 97 97
- 1.00084 2 3 cbr 210 ------- 2 1.0 3.1 97 97
r 1.00252 2 3 cbr 210 ------- 2 1.0 3.1 93 93
+ 1.005 1 2 cbr 210 ------- 2 1.0 3.1 101 102
- 1.005 1 2 cbr 210 ------- 2 1.0 3.1 101 102
r 1.00584 1 2 cbr 210 ------- 2 1.0 3.1 98 98
+ 1.00584 2 3 cbr 210 ------- 2 1.0 3.1 98 98
- 1.00584 2 3 cbr 210 ------- 2 1.0 3.1 98 98
r 1.00752 2 3 cbr 210 ------- 2 1.0 3.1 94 94
+ 1.01 1 2 cbr 210 ------- 2 1.0 3.1 102 103
- 1.01 1 2 cbr 210 ------- 2 1.0 3.1 102 103
r 1.01032 0 2 tcp 40 ------- 1 0.0 3.0 0 100
+ 1.01032 2 3 tcp 40 ------- 1 0.0 3.0 0 100
- 1.01032 2 3 tcp 40 ------- 1 0.0 3.0 0 100
r 1.01084 1 2 cbr 210 ------- 2 1.0 3.1 99 99
+ 1.01084 2 3 cbr 210 ------- 2 1.0 3.1 99 99
- 1.01084 2 3 cbr 210 ------- 2 1.0 3.1 99 99
r 1.01252 2 3 cbr 210 ------- 2 1.0 3.1 95 95
+ 1.015 1 2 cbr 210 ------- 2 1.0 3.1 103 104
- 1.015 1 2 cbr 210 ------- 2 1.0 3.1 103 104
r 1.01584 1 2 cbr 210 ------- 2 1.0 3.1 100 101
+ 1.01584 2 3 cbr 210 ------- 2 1.0 3.1 100 101
- 1.01584 2 3 cbr 210 ------- 2 1.0 3.1 100 101
r 1.01752 2 3 cbr 210 ------- 2 1.0 3.1 96 96
+ 1.02 1 2 cbr 210 ------- 2 1.0 3.1 104 105
- 1.02 1 2 cbr 210 ------- 2 1.0 3.1 104 105
r 1.02084 1 2 cbr 210 ------- 2 1.0 3.1 101 102
+ 1.02084 2 3 cbr 210 ------- 2 1.0 3.1 101 102
- 1.02084 2 3 cbr 210 ------- 2 1.0 3.1 101 102
r 1.02252 2 3 cbr 210 ------- 2 1.0 3.1 97 97
+ 1.025 1 2 cbr 210 ------- 2 1.0 3.1 105 106
- 1.025 1 2 cbr 210 ------- 2 1.0 3.1 105 106
r 1.02584 1 2 cbr 210 ------- 2 1.0 3.1 102 103
+ 1.02584 2 3 cbr 210 ------- 2 1.0 3.1 102 103
- 1.02584 2 3 cbr 210 ------- 2 1.0 3.1 102 103
r 1.02752 2 3 cbr 210 ------- 2 1.0 3.1 98 98
+ 1.03 1 2 cbr 210 ------- 2 1.0 3.1 106 107
- 1.03 1 2 cbr 210 ------- 2 1.0 3.1 106 107
r 1.03064 2 3 tcp 40 ------- 1 0.0 3.0 0 100
+ 1.03064 3 2 ack 40 ------- 1 3.0 0.0 0 108
- 1.03064 3 2 ack 40 ------- 1 3.0 0.0 0 108
r 1.03084 1 2 cbr 210 ------- 2 1.0 3.1 103 104
+ 1.03084 2 3 cbr 210 ------- 2 1.0 3.1 103 104
- 1.03084 2 3 cbr 210 ------- 2 1.0 3.1 103 104
r 1.03252 2 3 cbr 210 ------- 2 1.0 3.1 99 99
+ 1.035 1 2 cbr 210 ------- 2 1.0 3.1 107 109
- 1.035 1 2 cbr 210 ------- 2 1.0 3.1 107 109
r 1.03584 1 2 cbr 210 ------- 2 1.0 3.1 104 105
+ 1.03584 2 3 cbr 210 ------- 2 1.0 3.1 104 105
- 1.03584 2 3 cbr 210 ------- 2 1.0 3.1 104 105
r 1.03752 2 3 cbr 210 ------- 2 1.0 3.1 100 101
+ 1.04 1 2 cbr 210 ------- 2 1.0 3.1 108 110
- 1.04 1 2 cbr 210 ------- 2 1.0 3.1 108 110
r 1.04084 1 2 cbr 210 ------- 2 1.0 3.1 105 106
+ 1.04084 2 3 cbr 210 ------- 2 1.0 3.1 105 106
- 1.04084 2 3 cbr 210 ------- 2 1.0 3.1 105 106
r 1.04252 2 3 cbr 210 ------- 2 1.0 3.1 101 102
+ 1.045 1 2 cbr 210 ------- 2 1.0 3.1 109 111
- 1.045 1 2 cbr 210 ------- 2 1.0 3.1 109 111
r 1.04584 1 2 cbr 210 ------- 2 1.0 3.1 106 107
+ 1.04584 2 3 cbr 210 ------- 2 1.0 3.1 106 107
- 1.04584 2 3 cbr 210 ------- 2 1.0 3.1 106 107
r 1.04752 2 3 cbr 210 ------- 2 1.0 3.1 102 103
+ 1.05 1 2 cbr 210 ------- 2 1.0 3.1 110 112
- 1.05 1 2 cbr 210 ------- 2 1.0 3.1 110 112
r 1.05084 1 2 cbr 210 ------- 2 1.0 3.1 107 109
+ 1.05084 2 3 cbr 210 ------- 2 1.0 3.1 107 109
- 1.05084 2 3 cbr 210 ------- 2 1.0 3.1 107 109
r 1.05096 3 2 ack 40 ------- 1 3.0 0.0 0 108
+ 1.05096 2 0 ack 40 ------- 1 3.0 0.0 0 108
- 1.05096 2 0 ack 40 ------- 1 3.0 0.0 0 108
r 1.05252 2 3 cbr 210 ------- 2 1.0 3.1 103 104
+ 1.055 1 2 cbr 210 ------- 2 1.0 3.1 111 113
- 1.055 1 2 cbr 210 ------- 2 1.0 3.1 111 113
r 1.05584 1 2 cbr 210 ------- 2 1.0 3.1 108 110
+ 1.05584 2 3 cbr 210 ------- 2 1.0 3.1 108 110